/*--------------------------------*- C++ -*----------------------------------*\
  =========                 |
  \\      /  F ield         | OpenFOAM: The Open Source CFD Toolbox
   \\    /   O peration     | Website:  https://openfoam.org
    \\  /    A nd           | Version:  13
     \\/     M anipulation  |
\*---------------------------------------------------------------------------*/
FoamFile
{
    format      ascii;
    class       volScalarField;
    location    "1700";
    object      k;
}
// * * * * * * * * * * * * * * * * * * * * * * * * * * * * * * * * * * * * * //

dimensions      [0 2 -2 0 0 0 0];

internalField   nonuniform List<scalar> 
12225
(
0.453249
1.96774
1.91381
1.83336
1.74814
1.81785
1.34428
2.24585
2.9507
3.07676
3.43079
3.07419
3.15706
2.86383
2.28163
2.54704
2.5782
2.59441
0.0374846
0.0303904
0.0513446
0.0958969
0.125567
0.174862
0.186065
0.220243
0.259525
0.27978
0.29168
0.319072
0.343077
0.399742
0.463173
0.531671
0.577092
0.619956
0.135381
0.0487466
0.0267156
0.0204297
0.0221164
0.0256571
0.044697
0.0586483
0.0624361
0.0666228
0.0717957
0.0700878
0.0700717
0.0744356
0.0825196
0.0960002
0.103439
0.116526
0.297651
0.150026
0.118417
0.106048
0.0850749
0.0989687
0.0868264
0.0993385
0.103669
0.0989596
0.0890136
0.0795276
0.0703363
0.0630515
0.0597406
0.0588949
0.0559918
0.0550526
0.392255
0.252143
0.199449
0.173273
0.187754
0.166821
0.169729
0.196667
0.205416
0.199462
0.184495
0.168866
0.154451
0.141337
0.131811
0.123599
0.11791
0.1133
0.378122
0.32373
0.294715
0.278991
0.285444
0.266407
0.279307
0.286513
0.284112
0.27588
0.262689
0.250971
0.23908
0.228207
0.220733
0.212573
0.207888
0.202237
0.375857
0.357808
0.344074
0.330807
0.33189
0.320298
0.324952
0.326674
0.322297
0.315996
0.307445
0.300448
0.292547
0.285841
0.279401
0.273977
0.270593
0.265123
0.37602
0.365284
0.358868
0.352869
0.350678
0.347291
0.346975
0.344659
0.34122
0.336668
0.331678
0.326724
0.322218
0.317802
0.314263
0.310563
0.30841
0.305371
0.37508
0.369672
0.365958
0.362484
0.360059
0.357803
0.355739
0.353192
0.350501
0.347236
0.344036
0.340638
0.3377
0.334677
0.332329
0.329742
0.328034
0.325715
0.374213
0.371199
0.368505
0.365896
0.363684
0.361612
0.359573
0.357334
0.35512
0.352652
0.350316
0.347884
0.345744
0.343554
0.341745
0.339802
0.338327
0.336526
0.373922
0.371475
0.369237
0.367022
0.36499
0.363031
0.361158
0.359201
0.357313
0.355337
0.353469
0.35158
0.349865
0.348145
0.346637
0.345074
0.343764
0.342298
0.373856
0.371531
0.369379
0.367294
0.365348
0.363462
0.361679
0.35989
0.358173
0.356449
0.354814
0.353197
0.351698
0.350216
0.34887
0.347511
0.346308
0.345035
0.373838
0.371548
0.369406
0.367356
0.365431
0.363582
0.361836
0.360134
0.358512
0.356925
0.355418
0.35395
0.352571
0.351227
0.349976
0.348743
0.347609
0.346465
0.37383
0.371553
0.369406
0.367363
0.365434
0.363596
0.361856
0.360189
0.358604
0.357081
0.355632
0.354241
0.352921
0.351651
0.35045
0.34929
0.348195
0.34713
0.373827
0.371553
0.3694
0.367358
0.365422
0.363584
0.36184
0.36018
0.358601
0.357095
0.355663
0.354296
0.352994
0.351751
0.350568
0.349435
0.348356
0.347323
0.373826
0.371551
0.369396
0.367351
0.365412
0.36357
0.361822
0.360159
0.358579
0.357074
0.355642
0.354277
0.352977
0.351738
0.350556
0.349427
0.34835
0.347322
0.373825
0.37155
0.369392
0.367346
0.365404
0.36356
0.361809
0.360144
0.35856
0.357052
0.355617
0.35425
0.352947
0.351706
0.350521
0.349391
0.348312
0.347282
0.373825
0.371549
0.36939
0.367343
0.365399
0.363554
0.3618
0.360134
0.358547
0.357038
0.3556
0.354231
0.352926
0.351682
0.350494
0.349362
0.348281
0.347249
0.373825
0.371549
0.36939
0.367343
0.365398
0.363553
0.361798
0.36013
0.358543
0.357033
0.355594
0.354224
0.352917
0.351671
0.350483
0.349349
0.348267
0.347233
0.373825
0.371551
0.369392
0.367346
0.365402
0.363558
0.361804
0.360137
0.35855
0.357041
0.355602
0.354232
0.352926
0.351681
0.350492
0.349359
0.348277
0.347244
0.373826
0.371552
0.369396
0.367351
0.365411
0.363567
0.361816
0.36015
0.358566
0.357058
0.355622
0.354253
0.352948
0.351703
0.350517
0.349384
0.348303
0.347271
0.373827
0.371555
0.369402
0.36736
0.365423
0.363583
0.361834
0.360172
0.35859
0.357085
0.35565
0.354283
0.352979
0.351735
0.350548
0.349416
0.348333
0.347299
0.373829
0.371559
0.36941
0.367376
0.365442
0.363605
0.361856
0.360194
0.358611
0.357104
0.355665
0.354293
0.352981
0.35173
0.350532
0.349388
0.34829
0.347239
0.373836
0.371562
0.36943
0.36741
0.365471
0.363615
0.361837
0.360152
0.358542
0.357009
0.355539
0.354133
0.352784
0.351492
0.350248
0.349057
0.347897
0.346787
0.373853
0.371561
0.369489
0.367493
0.365484
0.363515
0.361602
0.359814
0.358106
0.356478
0.354921
0.353435
0.351984
0.350586
0.349216
0.347902
0.346591
0.345335
0.373895
0.371604
0.369732
0.367751
0.365474
0.363153
0.360877
0.358844
0.356952
0.355163
0.353432
0.351753
0.35005
0.348392
0.346723
0.345139
0.343508
0.341974
0.374144
0.372173
0.370811
0.369036
0.36616
0.362978
0.360063
0.357573
0.355395
0.353208
0.351076
0.34908
0.346845
0.344639
0.342334
0.340246
0.338087
0.336107
0.376439
0.377123
0.377921
0.37699
0.37411
0.369627
0.366194
0.36268
0.360465
0.357282
0.35487
0.354124
0.352269
0.350539
0.348194
0.347189
0.345266
0.344896
0.398887
0.413469
0.440083
0.459209
0.47485
0.484565
0.496796
0.506157
0.518574
0.528153
0.541153
0.551953
0.566613
0.578865
0.595267
0.608631
0.623351
0.634971
0.762805
1.14773
1.40419
1.54342
1.59633
1.59245
1.58022
1.54881
1.51019
1.47139
1.43455
1.40054
1.36976
1.34225
1.31763
1.29609
1.27688
1.25996
1.66773e-08
4.11558e-07
2.10148e-06
8.26165e-06
2.74844e-05
8.2284e-05
0.000219402
0.00044302
0.000727822
0.00103272
0.00131209
0.00153199
0.00168314
0.00175033
0.00173482
0.00166609
0.00154796
0.00133976
0.00114112
0.000974921
0.000816774
0.000663927
0.000511916
0.000371977
0.000244048
0.000143602
7.61683e-05
3.81832e-05
1.9214e-05
1.01663e-05
5.902e-06
4.16605e-06
4.38436e-06
7.20681e-06
1.10901e-05
0.000134627
0.000298773
0.000687573
0.00114422
0.00141098
0.00135798
0.00118761
0.000929828
0.000769909
0.000746384
0.000829271
0.000981804
0.0016059
0.00278867
0.00684726
0.0211132
0.0547537
0.0978748
0.136273
0.151388
0.157781
0.154596
0.159883
0.156531
0.136489
0.143854
0.165501
0.180991
0.149608
0.17152
0.176098
0.186184
0.193769
0.202343
0.210088
0.218118
0.225775
0.233492
0.241016
0.248519
0.255905
0.263237
0.270493
0.277673
0.284802
0.291834
0.298829
0.305713
0.312567
0.319293
0.325983
0.332539
0.33905
0.345432
0.351746
0.357936
0.364008
0.369934
0.375724
0.38135
0.386821
0.392104
0.397213
0.402127
0.406875
0.411474
0.416008
0.420376
0.424601
0.428683
0.432613
0.436396
0.44002
0.443489
0.44679
0.449931
0.452898
0.455699
0.458321
0.460772
0.46304
0.465135
0.467044
0.468776
0.47032
0.471689
0.472878
0.4739
0.474744
0.475423
0.475922
0.476261
0.476424
0.476443
0.476393
0.475945
0.475683
0.474797
0.474186
0.473111
0.472165
0.471076
0.469806
0.468249
0.466602
0.464787
0.462861
0.460812
0.458649
0.456378
0.453999
0.451522
0.448953
0.446317
0.443548
0.440763
0.437819
0.434894
0.431793
0.428713
0.425511
0.4223
0.419035
0.415746
0.412441
0.409121
0.405804
0.402487
0.399185
0.395893
0.392621
0.389368
0.386144
0.38295
0.379796
0.37668
0.373607
0.370563
0.367538
0.364473
0.361289
0.35785
0.353854
0.348681
0.33306
7.85793e-08
2.22445e-06
1.48658e-05
6.30694e-05
0.000233144
0.000675937
0.00160476
0.00295055
0.00453996
0.00619269
0.00773142
0.00901483
0.00998542
0.0106207
0.010951
0.0109215
0.0107902
0.0104817
0.00993848
0.00918302
0.008195
0.00705324
0.00575604
0.00447378
0.00312604
0.00207884
0.00131644
0.000807285
0.000481928
0.000284704
0.000175241
0.000118437
0.000103196
0.000122335
2.15267e-05
0.00145666
0.00288036
0.00638445
0.0100769
0.0125792
0.0132823
0.0128984
0.0118668
0.0117846
0.01303
0.0165312
0.0221426
0.0324672
0.05017
0.0749473
0.0992848
0.124615
0.146112
0.164461
0.178721
0.190774
0.204204
0.217479
0.232998
0.249288
0.269318
0.287703
0.306651
0.324306
0.344245
0.362637
0.38132
0.399483
0.417596
0.435433
0.453156
0.470715
0.488184
0.505544
0.52284
0.540062
0.557232
0.574353
0.591425
0.608457
0.625433
0.642372
0.659247
0.676077
0.692823
0.70951
0.726098
0.74261
0.759016
0.775325
0.791505
0.807513
0.823337
0.838954
0.854348
0.86949
0.884357
0.898915
0.913133
0.926973
0.940396
0.953387
0.966146
0.978623
0.990843
1.00278
1.01443
1.02578
1.03682
1.04753
1.0579
1.06793
1.07759
1.08689
1.09581
1.10435
1.11248
1.12022
1.12754
1.13444
1.14093
1.147
1.15265
1.15788
1.16269
1.16707
1.17102
1.17453
1.17762
1.18028
1.1825
1.18432
1.18568
1.18668
1.18716
1.18741
1.18747
1.1872
1.18682
1.18601
1.18482
1.18327
1.18136
1.1791
1.17651
1.17358
1.17034
1.16677
1.16291
1.15876
1.15428
1.14955
1.1445
1.13921
1.13362
1.12781
1.12175
1.11548
1.10903
1.10241
1.09565
1.08875
1.08175
1.07465
1.06746
1.06019
1.05285
1.04545
1.038
1.03053
1.02302
1.0155
1.00795
1.00035
0.992619
0.984638
0.976191
0.96695
0.954976
0.928436
1.81643e-07
5.38207e-06
4.07102e-05
0.000185941
0.000740617
0.00179796
0.00376792
0.00608748
0.00845187
0.0106264
0.0124678
0.013909
0.0149402
0.0155808
0.0158943
0.0158774
0.0157367
0.015431
0.0149341
0.014308
0.013545
0.0126456
0.0115907
0.0103649
0.00904045
0.00747693
0.00581013
0.00425209
0.0028799
0.00186853
0.00123981
0.000862576
0.000663807
0.000689112
0.000820654
0.00519267
0.0112225
0.0206896
0.0279619
0.0324812
0.0346145
0.0352549
0.0378366
0.0463089
0.0609391
0.0772642
0.0949775
0.115086
0.135926
0.155273
0.176244
0.197189
0.218838
0.241202
0.26487
0.290979
0.31743
0.344506
0.373026
0.400839
0.429102
0.456569
0.483529
0.510017
0.535953
0.561286
0.586167
0.610602
0.634708
0.658497
0.682048
0.70539
0.728568
0.751607
0.77453
0.797353
0.820089
0.842745
0.865323
0.887827
0.910249
0.932591
0.954842
0.976997
0.999041
1.02097
1.04276
1.06441
1.08591
1.10726
1.12842
1.14935
1.17005
1.19049
1.21067
1.23055
1.25014
1.26942
1.28838
1.30701
1.32533
1.34333
1.36099
1.3783
1.39525
1.41181
1.42797
1.44372
1.45904
1.47391
1.48832
1.50226
1.5157
1.52864
1.54106
1.55296
1.56431
1.57511
1.58535
1.59502
1.60411
1.61264
1.62059
1.62796
1.63476
1.64097
1.64659
1.65162
1.65607
1.65994
1.66322
1.66593
1.66806
1.66965
1.67059
1.67108
1.67121
1.67081
1.66987
1.66842
1.66644
1.66396
1.66099
1.65753
1.65359
1.64918
1.64432
1.63902
1.63328
1.62713
1.62053
1.61357
1.60617
1.59843
1.59028
1.58181
1.573
1.56389
1.5545
1.54488
1.53503
1.525
1.5148
1.50445
1.49398
1.48339
1.47269
1.46191
1.45106
1.44016
1.42923
1.41829
1.40735
1.39638
1.38535
1.37416
1.36264
1.35051
1.33585
1.31094
6.97674e-07
2.09103e-05
0.000163964
0.000665136
0.002065
0.00485666
0.00836527
0.0118291
0.0148846
0.0173393
0.0191459
0.0203359
0.0209942
0.0211957
0.0211065
0.0208232
0.020309
0.0196726
0.0189464
0.0181497
0.0172849
0.0163525
0.0153372
0.0142204
0.0129955
0.0116387
0.0101409
0.00856418
0.00699649
0.0054944
0.00415472
0.00313851
0.00262719
0.00321376
0.00706223
0.018445
0.0341657
0.0468481
0.0562157
0.0631982
0.070406
0.0801839
0.0928991
0.107464
0.1223
0.137862
0.15526
0.175096
0.19605
0.219072
0.244388
0.271455
0.30044
0.330838
0.362422
0.39484
0.42765
0.460595
0.493584
0.526124
0.558314
0.589894
0.620909
0.65139
0.681314
0.710745
0.739746
0.768379
0.796704
0.824764
0.852613
0.880286
0.907818
0.935232
0.96255
0.989784
1.01694
1.04403
1.07105
1.09799
1.12486
1.15164
1.17832
1.20489
1.23135
1.25766
1.28382
1.30983
1.33565
1.36129
1.38672
1.41191
1.43682
1.46145
1.48578
1.5098
1.5335
1.55686
1.57986
1.60251
1.62478
1.64666
1.66813
1.68917
1.70976
1.72987
1.7495
1.76862
1.78721
1.80525
1.82273
1.83963
1.85593
1.87161
1.88666
1.90107
1.91481
1.92788
1.94027
1.95196
1.96295
1.97324
1.98282
1.99169
1.99986
2.0073
2.01403
2.02005
2.02535
2.02993
2.03381
2.03697
2.03944
2.04122
2.04223
2.04263
2.04257
2.04176
2.0403
2.0382
2.03547
2.03212
2.02816
2.02361
2.01847
2.01275
2.00648
1.99966
1.9923
1.98443
1.97603
1.96716
1.95779
1.94798
1.9377
1.92701
1.91591
1.90443
1.89263
1.88051
1.86813
1.85551
1.84268
1.82966
1.81649
1.80317
1.78973
1.77618
1.76254
1.74886
1.73514
1.72143
1.70774
1.69408
1.68043
1.66676
1.65294
1.63877
1.62261
1.59933
2.35497e-06
7.06744e-05
0.000527689
0.0020699
0.00571351
0.0109266
0.0158833
0.0199304
0.0228741
0.0247762
0.0258184
0.0262029
0.026121
0.0257843
0.0251527
0.0243837
0.0235328
0.0226371
0.0217206
0.0207944
0.0198556
0.0188972
0.017903
0.0168549
0.0157296
0.0145132
0.013184
0.0117686
0.0103402
0.00899029
0.00763566
0.00652635
0.00763875
0.0141379
0.0307872
0.0516515
0.0695459
0.0833373
0.093839
0.10335
0.113534
0.12475
0.136963
0.150148
0.165612
0.184033
0.205215
0.229053
0.255418
0.284077
0.31467
0.346766
0.38009
0.414234
0.448975
0.484076
0.519368
0.554671
0.589873
0.624826
0.659485
0.693775
0.727682
0.761202
0.794342
0.827138
0.859628
0.891853
0.923853
0.955666
0.987329
1.01887
1.05032
1.08169
1.113
1.14426
1.17547
1.20663
1.23773
1.26878
1.29975
1.33065
1.36145
1.39214
1.4227
1.45311
1.48337
1.51345
1.54333
1.57302
1.60247
1.63165
1.66054
1.68912
1.71736
1.74525
1.77278
1.79992
1.82666
1.85298
1.87886
1.90427
1.92919
1.95361
1.9775
2.00084
2.02361
2.04578
2.06734
2.08826
2.10852
2.1281
2.14698
2.16515
2.18257
2.19924
2.21515
2.23026
2.24457
2.25808
2.27076
2.28262
2.29365
2.30385
2.31322
2.32174
2.32943
2.33628
2.34229
2.34747
2.35181
2.35533
2.35802
2.35989
2.36086
2.36116
2.36079
2.35958
2.3576
2.35487
2.35141
2.34723
2.34233
2.33674
2.33047
2.32353
2.31593
2.30769
2.29883
2.28936
2.2793
2.26867
2.25748
2.24577
2.23353
2.2208
2.2076
2.19397
2.17994
2.16556
2.15086
2.13588
2.12065
2.1052
2.08956
2.07376
2.05781
2.04173
2.02556
2.00933
1.99308
1.97685
1.96066
1.94456
1.92855
1.91263
1.89673
1.88072
1.86322
1.84044
7.46668e-06
0.000219728
0.00158094
0.00563003
0.0131531
0.019979
0.0249799
0.0281565
0.0298987
0.0306368
0.0306595
0.0303379
0.0296237
0.02869
0.0276457
0.026554
0.0254616
0.0243948
0.0233689
0.0223848
0.0214336
0.0205015
0.019568
0.0186076
0.017591
0.0165084
0.015309
0.013954
0.012397
0.0109342
0.011091
0.0140841
0.024655
0.0457177
0.0701232
0.0914485
0.107717
0.119304
0.128211
0.136655
0.145874
0.156498
0.170005
0.186675
0.206538
0.229713
0.255827
0.284381
0.314897
0.346933
0.380173
0.414331
0.449211
0.484639
0.520514
0.556728
0.593202
0.629832
0.666538
0.70323
0.739845
0.776331
0.812656
0.848802
0.884764
0.920549
0.956176
0.991664
1.02704
1.06233
1.09755
1.13273
1.16788
1.20302
1.23815
1.27327
1.30839
1.34349
1.37857
1.41361
1.4486
1.48353
1.51837
1.5531
1.58771
1.62217
1.65646
1.69056
1.72447
1.75815
1.79159
1.82473
1.85755
1.89002
1.92213
1.95384
1.98514
2.01599
2.04639
2.07629
2.10568
2.13454
2.16284
2.19057
2.21768
2.24417
2.27
2.29515
2.3196
2.34331
2.36628
2.38847
2.40987
2.43044
2.45018
2.46905
2.48704
2.50414
2.52032
2.53558
2.54989
2.56327
2.57569
2.58716
2.59768
2.60723
2.61582
2.62346
2.63013
2.63584
2.6406
2.64442
2.64729
2.64921
2.6501
2.65026
2.64956
2.64793
2.64542
2.64206
2.63787
2.63285
2.62703
2.62041
2.61302
2.60486
2.59597
2.58635
2.57602
2.565
2.55331
2.54098
2.52802
2.51446
2.50032
2.48562
2.47039
2.45467
2.43851
2.42195
2.40502
2.38776
2.37022
2.35244
2.33443
2.31623
2.29786
2.27935
2.26073
2.24206
2.22337
2.2047
2.18612
2.16766
2.14936
2.13125
2.1133
2.09542
2.07644
2.05326
2.37433e-05
0.000657595
0.00432025
0.013572
0.0229292
0.0291083
0.0326049
0.0343281
0.0349167
0.0347817
0.0341835
0.0331614
0.0319272
0.030582
0.0292092
0.0278661
0.0265929
0.0254081
0.0243173
0.0233116
0.0223748
0.0214836
0.0206064
0.0197094
0.0187359
0.0176984
0.0167397
0.0160255
0.0160128
0.0179822
0.0248426
0.0396578
0.0628186
0.0873763
0.109194
0.125829
0.137123
0.145123
0.152248
0.160253
0.17108
0.185362
0.203139
0.224458
0.24902
0.276366
0.305829
0.336859
0.369083
0.402264
0.436246
0.47091
0.50618
0.541999
0.578331
0.615135
0.652368
0.68996
0.727839
0.76594
0.804206
0.842582
0.881029
0.919513
0.958014
0.996522
1.03504
1.07357
1.11212
1.1507
1.18934
1.22802
1.26678
1.3056
1.34448
1.38343
1.42242
1.46145
1.5005
1.53955
1.57857
1.61755
1.65646
1.69527
1.73397
1.77252
1.81089
1.84908
1.88705
1.92478
1.96226
1.99942
2.03622
2.07264
2.10866
2.14422
2.17933
2.21393
2.24801
2.28153
2.31447
2.34681
2.37851
2.40956
2.43992
2.46957
2.49847
2.52661
2.55396
2.58049
2.60616
2.63097
2.65487
2.67786
2.69989
2.72096
2.74104
2.7601
2.77814
2.79513
2.81106
2.82593
2.83973
2.85245
2.86408
2.87464
2.88411
2.89249
2.89979
2.90601
2.91115
2.91523
2.91825
2.92017
2.92098
2.92095
2.91989
2.91782
2.91476
2.91075
2.90579
2.89992
2.89315
2.88549
2.87696
2.86758
2.85737
2.84636
2.83455
2.82198
2.80867
2.79463
2.7799
2.76451
2.74847
2.73181
2.71457
2.69679
2.67851
2.65978
2.64065
2.62115
2.60132
2.58122
2.56087
2.5403
2.51954
2.49862
2.47759
2.45649
2.43538
2.41431
2.39334
2.37253
2.35193
2.33161
2.31155
2.29169
2.271
2.24679
7.16655e-05
0.00182503
0.0103381
0.0235218
0.0318743
0.0363774
0.0385645
0.039303
0.0391179
0.038317
0.0370081
0.0354331
0.03373
0.0320031
0.0303352
0.0287784
0.0273644
0.0260993
0.0249769
0.0239765
0.0230728
0.0222311
0.0214092
0.0205451
0.019672
0.0190391
0.019005
0.0206322
0.0257104
0.0370385
0.0559875
0.0787857
0.101327
0.121423
0.137126
0.147933
0.155439
0.162164
0.170613
0.182084
0.197142
0.215893
0.238065
0.263265
0.290892
0.320333
0.351055
0.382747
0.415242
0.448458
0.482356
0.516918
0.552134
0.588006
0.624537
0.661704
0.699474
0.737802
0.776641
0.815934
0.855627
0.895665
0.936003
0.976601
1.01743
1.05846
1.09969
1.1411
1.1827
1.22448
1.26643
1.30857
1.35089
1.39338
1.43602
1.47881
1.52172
1.56473
1.60781
1.65093
1.69406
1.73718
1.78024
1.82322
1.86609
1.90882
1.95138
1.99374
2.03587
2.07775
2.11936
2.16063
2.2015
2.24196
2.28196
2.32147
2.36046
2.39888
2.43672
2.47393
2.51049
2.54637
2.58153
2.61595
2.6496
2.68245
2.71447
2.74563
2.7759
2.80525
2.83366
2.86108
2.8875
2.9129
2.93723
2.96049
2.98264
3.00366
3.02353
3.04223
3.05976
3.07609
3.09123
3.10516
3.11789
3.1294
3.13971
3.1488
3.15669
3.16337
3.16884
3.17314
3.17625
3.17813
3.17884
3.17854
3.17709
3.17453
3.17088
3.16617
3.16042
3.15366
3.14589
3.13715
3.12745
3.11681
3.10527
3.09283
3.07953
3.06538
3.05042
3.03466
3.01815
3.0009
2.98295
2.96432
2.94506
2.9252
2.90481
2.88392
2.86258
2.84084
2.81874
2.79633
2.77364
2.7507
2.72755
2.70423
2.68078
2.65726
2.63373
2.61024
2.58688
2.5637
2.54078
2.51818
2.49592
2.47397
2.45136
2.42564
0.000189191
0.00439027
0.0195433
0.0325317
0.0393534
0.0426399
0.0438994
0.0438658
0.043026
0.0415166
0.0396344
0.0375534
0.0354218
0.033352
0.0314306
0.0297069
0.0282087
0.0269356
0.0258754
0.025011
0.024325
0.0238288
0.0235833
0.0237296
0.024595
0.0266605
0.0307619
0.0387602
0.0527917
0.0708617
0.0907756
0.11054
0.128071
0.142162
0.152622
0.160633
0.16829
0.177664
0.190002
0.205859
0.225194
0.247692
0.272846
0.300112
0.328928
0.358848
0.389588
0.421027
0.45313
0.485907
0.519384
0.553589
0.588563
0.624329
0.660897
0.698263
0.736417
0.77533
0.814968
0.855283
0.896229
0.937753
0.979812
1.02236
1.06536
1.10878
1.15261
1.19681
1.24138
1.2863
1.33156
1.37715
1.42304
1.46924
1.51569
1.56239
1.6093
1.65638
1.70359
1.75089
1.79823
1.84559
1.89292
1.94018
1.98735
2.03437
2.08121
2.12784
2.17423
2.22037
2.2662
2.31168
2.35673
2.40131
2.44539
2.48893
2.53187
2.5742
2.61586
2.65682
2.69706
2.73653
2.7752
2.81303
2.85
2.88607
2.92122
2.9554
2.98859
3.02076
3.05188
3.08191
3.11082
3.13859
3.16519
3.19059
3.21477
3.2377
3.25935
3.27972
3.29878
3.31652
3.33293
3.34801
3.36176
3.37416
3.38524
3.39497
3.40336
3.41043
3.41617
3.4206
3.42374
3.42552
3.42605
3.4254
3.42351
3.42039
3.41608
3.41061
3.40401
3.39629
3.38748
3.3776
3.36668
3.35474
3.34181
3.32792
3.31308
3.29732
3.28068
3.26318
3.24486
3.22574
3.20586
3.18524
3.16394
3.142
3.11948
3.09643
3.0729
3.04892
3.02455
2.99982
2.97479
2.94949
2.92395
2.89823
2.87236
2.84642
2.82046
2.79456
2.76878
2.74321
2.71792
2.693
2.66846
2.64431
2.61962
2.59203
0.000428303
0.00902982
0.0289961
0.0406687
0.0462319
0.0486314
0.0491657
0.0484942
0.0469684
0.0448808
0.0424686
0.0399264
0.0374225
0.0350814
0.0329953
0.0312133
0.029763
0.0286403
0.0277983
0.0272949
0.0270655
0.0271944
0.0280277
0.0301144
0.0343581
0.041654
0.0525272
0.0666901
0.0826149
0.0995645
0.116122
0.131044
0.1436
0.153883
0.162723
0.171641
0.182186
0.19549
0.211961
0.231549
0.25389
0.278533
0.304982
0.332789
0.361572
0.391093
0.42124
0.452004
0.483421
0.515545
0.548442
0.582175
0.616794
0.652332
0.688825
0.726284
0.764713
0.804099
0.844419
0.885637
0.927717
0.970612
1.01428
1.05868
1.10377
1.14951
1.19588
1.24284
1.29037
1.33845
1.38705
1.43614
1.48569
1.53567
1.58604
1.63675
1.68777
1.73903
1.79049
1.84209
1.89377
1.94549
1.99721
2.04886
2.10042
2.15184
2.20307
2.25408
2.30482
2.35528
2.40543
2.45518
2.50448
2.55325
2.60148
2.64909
2.69605
2.74231
2.78783
2.83258
2.87652
2.91959
2.96177
3.00302
3.04329
3.08256
3.1208
3.15797
3.19404
3.22897
3.26273
3.29529
3.32662
3.35668
3.38546
3.41292
3.43903
3.46377
3.4871
3.50902
3.5295
3.54853
3.56611
3.58222
3.59687
3.61006
3.62178
3.63204
3.64083
3.64817
3.65406
3.65852
3.66157
3.66315
3.6634
3.66232
3.65987
3.65611
3.65106
3.64475
3.63721
3.62846
3.61853
3.60745
3.59525
3.58195
3.56758
3.55218
3.53576
3.51836
3.50001
3.48073
3.46057
3.43955
3.41771
3.39509
3.37174
3.34772
3.32307
3.29786
3.27213
3.24592
3.21928
3.19226
3.1649
3.13724
3.10932
3.08119
3.05291
3.02455
2.99617
2.96785
2.93966
2.91168
2.884
2.8567
2.82982
2.80338
2.77652
2.74715
0.00083042
0.0158729
0.0374518
0.0480332
0.0528307
0.0546398
0.0546439
0.0534194
0.0513653
0.0487881
0.0459516
0.043077
0.0403538
0.0379204
0.0358772
0.0342837
0.0331629
0.0325917
0.0324585
0.0328801
0.0341418
0.0366155
0.0407341
0.0468424
0.0551519
0.0656266
0.0779928
0.0916496
0.10571
0.119418
0.132103
0.143465
0.153616
0.163235
0.173376
0.185138
0.199287
0.21616
0.235663
0.257502
0.281275
0.306597
0.333103
0.360504
0.388594
0.417276
0.446536
0.476424
0.507009
0.538384
0.570628
0.603811
0.638003
0.673256
0.709615
0.74711
0.785757
0.825557
0.866503
0.908572
0.951738
0.995964
1.04121
1.08745
1.13462
1.18269
1.23163
1.2814
1.33196
1.38327
1.43531
1.48801
1.54133
1.59523
1.64965
1.70451
1.75977
1.81535
1.87119
1.92722
1.98336
2.03955
2.09575
2.1519
2.20796
2.26386
2.31957
2.37502
2.43018
2.48502
2.53951
2.59357
2.64712
2.7001
2.75246
2.80414
2.8551
2.90528
2.95463
3.00313
3.05072
3.09735
3.14297
3.18755
3.23104
3.27342
3.31464
3.35468
3.39349
3.43106
3.46733
3.50227
3.53586
3.56806
3.59885
3.6282
3.65607
3.68244
3.70728
3.73058
3.7523
3.77245
3.791
3.80797
3.82334
3.83713
3.84932
3.85993
3.86895
3.8764
3.88229
3.88662
3.88942
3.89069
3.89051
3.88886
3.88575
3.88122
3.87532
3.86806
3.85948
3.84961
3.83848
3.82612
3.81256
3.79783
3.78196
3.765
3.74695
3.72787
3.70778
3.6867
3.66467
3.64174
3.61792
3.59329
3.56789
3.54178
3.51502
3.48767
3.45976
3.43135
3.40247
3.37318
3.34352
3.31352
3.28324
3.25274
3.22208
3.19133
3.16056
3.12984
3.09925
3.06887
3.03878
3.00908
2.97982
2.95105
2.92195
2.89065
0.00135602
0.0231843
0.0453363
0.0553853
0.0597025
0.0610438
0.0606279
0.0589745
0.0565202
0.0536171
0.0505674
0.0476197
0.0449835
0.0428236
0.0412474
0.0404196
0.0401829
0.0406081
0.0419253
0.0442569
0.0478249
0.0527636
0.0592034
0.0671619
0.0765245
0.0870558
0.0983679
0.109976
0.121443
0.132491
0.143014
0.15319
0.163524
0.174732
0.187484
0.202269
0.219264
0.238405
0.259446
0.282096
0.306044
0.331035
0.356844
0.383323
0.41038
0.438009
0.466246
0.495173
0.524886
0.555481
0.587049
0.619679
0.65345
0.688427
0.72467
0.762221
0.801112
0.841357
0.882966
0.92593
0.970237
1.01586
1.06277
1.11092
1.16028
1.2108
1.26243
1.31513
1.36886
1.42357
1.47919
1.53568
1.59295
1.65094
1.70957
1.76875
1.82841
1.88846
1.94882
2.00939
2.0701
2.13087
2.19164
2.25235
2.31296
2.37341
2.43362
2.49354
2.55311
2.61231
2.6711
2.72941
2.78714
2.84424
2.90064
2.95629
3.01112
3.06509
3.11815
3.17025
3.22134
3.27136
3.32026
3.36799
3.41451
3.45978
3.50378
3.54646
3.5878
3.62775
3.66628
3.70336
3.73895
3.77302
3.80556
3.83652
3.86589
3.89363
3.91971
3.94411
3.96681
3.9878
4.00707
4.02463
4.04048
4.05461
4.06704
4.07776
4.08678
4.09412
4.09978
4.10378
4.10614
4.10689
4.10609
4.10372
4.09978
4.09435
4.08745
4.07912
4.06939
4.05829
4.04586
4.03212
4.01712
4.00088
3.98345
3.96487
3.94515
3.92435
3.90249
3.87959
3.8557
3.83083
3.80505
3.77841
3.75099
3.72283
3.69399
3.66454
3.6345
3.60394
3.57288
3.54138
3.50946
3.47718
3.4446
3.41178
3.3788
3.34573
3.31262
3.27956
3.24661
3.21386
3.1814
3.14931
3.11768
3.08656
3.05521
3.02194
0.00201352
0.0298
0.052641
0.0626706
0.0668027
0.0679014
0.0671929
0.0652312
0.0625304
0.0595244
0.0565627
0.053906
0.0517531
0.0503321
0.0497251
0.0496957
0.0506216
0.0524632
0.055283
0.0591314
0.0640831
0.0701461
0.0772766
0.0853436
0.0941833
0.10359
0.113346
0.123274
0.133269
0.143347
0.153697
0.164664
0.176672
0.190101
0.205194
0.222039
0.24056
0.260594
0.28192
0.304335
0.327647
0.351717
0.376431
0.401741
0.427631
0.454144
0.481351
0.509348
0.538234
0.568121
0.599107
0.631289
0.664757
0.699593
0.735868
0.773633
0.812932
0.853794
0.896246
0.940291
0.985933
1.03315
1.08192
1.13221
1.18398
1.23718
1.29176
1.34765
1.40481
1.46317
1.52265
1.58317
1.64463
1.70693
1.76996
1.83361
1.8978
1.96243
2.02739
2.09259
2.15791
2.22328
2.28863
2.35391
2.41906
2.48401
2.54869
2.61302
2.67691
2.74036
2.80331
2.86568
2.9274
2.9884
3.04861
3.10798
3.16644
3.22394
3.28042
3.33583
3.39012
3.44322
3.49507
3.54562
3.59483
3.64265
3.68905
3.73401
3.77749
3.81945
3.85986
3.89868
3.93588
3.97144
4.00533
4.03752
4.06799
4.0967
4.12364
4.14878
4.17209
4.19355
4.21319
4.23099
4.24696
4.26111
4.27345
4.28396
4.29268
4.29961
4.30477
4.30817
4.30984
4.30982
4.30822
4.30489
4.29994
4.29342
4.28537
4.27581
4.26479
4.25233
4.23848
4.22327
4.20673
4.18892
4.16986
4.1496
4.12817
4.10562
4.08197
4.05727
4.03151
4.00473
3.977
3.94841
3.91901
3.88886
3.85802
3.82653
3.79445
3.76182
3.72867
3.69504
3.66096
3.62648
3.5917
3.55667
3.52147
3.48617
3.45083
3.41551
3.3803
3.34525
3.31048
3.27607
3.24211
3.2087
3.17512
3.13993
0.00284265
0.035786
0.0600437
0.070227
0.0742321
0.0751419
0.0741807
0.0719881
0.0691602
0.0662411
0.0636618
0.0616461
0.0603668
0.0598469
0.0599541
0.0610331
0.0630058
0.0658402
0.069544
0.0741153
0.0795355
0.0857466
0.0926774
0.100233
0.10834
0.116922
0.125936
0.135371
0.145302
0.155876
0.167296
0.179778
0.193504
0.208572
0.22499
0.2427
0.261575
0.281483
0.302281
0.323862
0.346128
0.369031
0.39254
0.416674
0.441463
0.466985
0.493326
0.520594
0.548896
0.578334
0.609015
0.641046
0.674523
0.709536
0.746169
0.784487
0.824552
0.866407
0.910093
0.95563
1.00303
1.05228
1.10336
1.15624
1.21087
1.2672
1.32516
1.38468
1.44567
1.50805
1.57171
1.63654
1.7024
1.76916
1.83669
1.90486
1.97359
2.04277
2.11229
2.18203
2.25188
2.32175
2.39158
2.4613
2.53085
2.60015
2.66911
2.73764
2.80564
2.87307
2.9399
3.00601
3.07133
3.13584
3.19946
3.26213
3.32377
3.38434
3.44377
3.50201
3.559
3.61466
3.66894
3.72178
3.77312
3.82294
3.8712
3.91788
3.96293
4.00633
4.04805
4.08805
4.1263
4.16279
4.19747
4.23035
4.26138
4.29055
4.31782
4.34319
4.36662
4.38811
4.40766
4.42527
4.44094
4.45469
4.46652
4.47643
4.48445
4.49059
4.49488
4.49735
4.49802
4.49702
4.49428
4.48976
4.48357
4.47576
4.46635
4.4554
4.44292
4.42897
4.41358
4.39679
4.37863
4.35916
4.33841
4.31642
4.29325
4.26893
4.24351
4.21701
4.18943
4.16078
4.13119
4.10072
4.06943
4.03739
4.00464
3.97123
3.93722
3.90264
3.86753
3.83192
3.7958
3.75928
3.72243
3.68534
3.64807
3.61069
3.57326
3.53583
3.49848
3.46127
3.4243
3.38769
3.3515
3.31589
3.28017
3.24319
0.00371554
0.0417872
0.0672093
0.0776876
0.0816709
0.0824575
0.0811873
0.078663
0.0758017
0.0732369
0.0713004
0.0701873
0.0697562
0.0698572
0.0708695
0.0727206
0.0753637
0.0787525
0.0828681
0.0876813
0.0931718
0.099303
0.10606
0.113417
0.121374
0.129932
0.139139
0.149057
0.159786
0.171423
0.184054
0.197739
0.212496
0.228302
0.245092
0.262789
0.281303
0.300565
0.320507
0.341103
0.362327
0.3842
0.40674
0.430007
0.454071
0.479031
0.504956
0.531961
0.560159
0.589667
0.620605
0.653075
0.687195
0.723057
0.760761
0.80038
0.841988
0.885635
0.931367
0.979217
1.02919
1.08129
1.13546
1.19169
1.2499
1.31003
1.37199
1.43568
1.50095
1.56766
1.6357
1.70494
1.77521
1.84634
1.91816
1.99061
2.06358
2.13697
2.21071
2.28467
2.35871
2.43274
2.5067
2.58054
2.65414
2.72739
2.80024
2.8725
2.94414
3.01504
3.0852
3.15449
3.22291
3.29041
3.3569
3.4223
3.48654
3.54955
3.61128
3.67167
3.73065
3.78817
3.84413
3.89849
3.95121
4.00224
4.05157
4.09917
4.14501
4.18907
4.23131
4.27171
4.31025
4.3469
4.38165
4.41448
4.44537
4.47429
4.50123
4.52617
4.5491
4.57001
4.5889
4.60576
4.6206
4.63343
4.64425
4.65308
4.65993
4.66483
4.66782
4.66895
4.66833
4.66597
4.66173
4.65573
4.64803
4.63866
4.62767
4.6151
4.60098
4.58535
4.56826
4.54975
4.52985
4.50862
4.48609
4.46231
4.43733
4.41121
4.38398
4.35568
4.32632
4.29592
4.26458
4.23237
4.19934
4.16554
4.13103
4.09585
4.06006
4.0237
3.98681
3.94939
3.91142
3.87305
3.83436
3.79541
3.75628
3.71701
3.67768
3.63834
3.59905
3.55985
3.52086
3.48221
3.44397
3.40631
3.3686
3.33003
0.0046437
0.0478397
0.0743878
0.0851122
0.0890528
0.0896728
0.088025
0.0853398
0.0827167
0.0807053
0.0795775
0.0791532
0.0792236
0.0800599
0.0816912
0.0840656
0.087144
0.0908845
0.0952781
0.10031
0.105992
0.112317
0.119311
0.126985
0.135387
0.144546
0.15452
0.16534
0.177054
0.189659
0.203164
0.217542
0.232757
0.248748
0.265456
0.28284
0.300857
0.319505
0.338771
0.3587
0.379301
0.400654
0.422811
0.445905
0.470054
0.495288
0.521623
0.54929
0.578386
0.609051
0.641397
0.675548
0.711605
0.749676
0.789857
0.832219
0.876831
0.923715
0.972914
1.02442
1.07827
1.1344
1.19274
1.25322
1.31578
1.38034
1.44682
1.51504
1.58483
1.6559
1.72818
1.80152
1.87582
1.9509
2.0266
2.10294
2.17975
2.25694
2.33438
2.41188
2.48937
2.56682
2.64431
2.72162
2.79862
2.87515
2.95109
3.02636
3.10077
3.17431
3.24696
3.3187
3.3895
3.45924
3.5278
3.59508
3.661
3.72551
3.78854
3.85006
3.90998
3.96825
4.02479
4.07955
4.13249
4.18359
4.23283
4.2802
4.32568
4.36926
4.41092
4.45062
4.48836
4.52413
4.55791
4.58969
4.61947
4.64722
4.67292
4.69657
4.71814
4.73764
4.75507
4.77043
4.78372
4.79497
4.80417
4.81134
4.81648
4.81965
4.8209
4.82035
4.81806
4.8138
4.80775
4.79994
4.79041
4.77922
4.7664
4.75198
4.73602
4.71856
4.69963
4.67927
4.65754
4.63448
4.61012
4.58453
4.55774
4.52981
4.50079
4.47072
4.43966
4.40766
4.37473
4.34093
4.30631
4.27091
4.2348
4.19801
4.1606