/*--------------------------------*- C++ -*----------------------------------*\
  =========                 |
  \\      /  F ield         | OpenFOAM: The Open Source CFD Toolbox
   \\    /   O peration     | Website:  https://openfoam.org
    \\  /    A nd           | Version:  13
     \\/     M anipulation  |
\*---------------------------------------------------------------------------*/
FoamFile
{
    format      ascii;
    class       volScalarField;
    location    "1700";
    object      nut;
}
// * * * * * * * * * * * * * * * * * * * * * * * * * * * * * * * * * * * * * //

dimensions      [0 2 -1 0 0 0 0];

internalField   nonuniform List<scalar> 
12225
(
4.50524e-06
1.98645e-05
1.97133e-05
1.92985e-05
1.88139e-05
1.99766e-05
1.50695e-05
2.56544e-05
3.42722e-05
3.62836e-05
4.10479e-05
3.72807e-05
3.87503e-05
3.55277e-05
2.85669e-05
3.21562e-05
3.27691e-05
3.32077e-05
5.22309e-08
8.70718e-08
3.89083e-07
1.6638e-06
4.75303e-06
1.3116e-05
2.40361e-05
0.000163859
3.78607e-05
1.52132e-05
1.21709e-05
1.29729e-05
1.26914e-05
1.85946e-05
2.27042e-05
2.40555e-05
2.56323e-05
2.74598e-05
9.2844e-07
6.04727e-07
4.45481e-07
5.66632e-07
1.72012e-06
1.44644e-06
2.45761e-06
3.4288e-06
4.19519e-06
4.85414e-06
5.89555e-06
6.04368e-06
6.15831e-06
6.94243e-06
8.12386e-06
9.69438e-06
1.07907e-05
1.2276e-05
9.28413e-06
5.35737e-06
7.72513e-06
2.98417e-05
6.23979e-06
5.64813e-06
6.25273e-06
9.55316e-06
1.44089e-05
1.80952e-05
1.62948e-05
1.51366e-05
1.38712e-05
1.2686e-05
1.23141e-05
1.17417e-05
1.18709e-05
1.12301e-05
5.72352e-05
2.67375e-05
1.19316e-05
1.0441e-05
1.17775e-05
1.30645e-05
1.93935e-05
3.29688e-05
5.05971e-05
6.13162e-05
7.0082e-05
6.18384e-05
5.83737e-05
5.38785e-05
5.0624e-05
4.37619e-05
4.45414e-05
4.27371e-05
0.000111947
0.0393526
6.79037e-05
4.87406e-05
4.70866e-05
5.28267e-05
7.61884e-05
0.000103877
0.000143518
0.000132781
0.000136706
0.000137767
0.000135731
0.000130151
0.000124046
0.000121151
0.000118776
0.000115393
0.000887898
0.00786907
0.000241508
0.000133315
0.000130161
0.000154607
0.000194293
0.00025005
0.000236264
0.000258799
0.000263517
0.000260324
0.000253186
0.00024118
0.000230601
0.000227954
0.000218175
0.000219087
0.00493951
0.000634749
0.00085017
0.000344562
0.000301257
0.000331535
0.000399703
0.000376234
0.000404261
0.000422336
0.000417928
0.000409314
0.000400319
0.000385129
0.000371737
0.000354463
0.000354974
0.000350108
0.00113079
0.000701995
0.00077044
0.000612859
0.000558967
0.000592076
0.000550727
0.000563235
0.00058788
0.0005959
0.000586572
0.000570417
0.000553868
0.000537209
0.000521534
0.000507825
0.000494454
0.000490834
0.000886354
0.000867394
0.000830464
0.000771982
0.000741975
0.00075558
0.000716626
0.000730522
0.000734024
0.000729591
0.000719358
0.000705464
0.00069111
0.000675904
0.000662686
0.000649619
0.00063817
0.000630491
0.000853016
0.000858816
0.00085148
0.000836913
0.000820879
0.000820623
0.000804953
0.000803491
0.000804895
0.000802114
0.000796083
0.000788023
0.000779377
0.000769675
0.000761284
0.000751705
0.000745181
0.000735479
0.000852918
0.000851227
0.000849734
0.000847004
0.000843277
0.00084122
0.000838814
0.000836968
0.000833137
0.000830651
0.000827739
0.000823807
0.000819334
0.000814215
0.000809553
0.000804157
0.000800207
0.000794539
0.000851881
0.000850729
0.000849845
0.000848835
0.000847703
0.000846729
0.000845756
0.000844628
0.000843401
0.000841948
0.000840366
0.000838441
0.000836489
0.000834091
0.00083204
0.000829452
0.000827753
0.000824859
0.000851602
0.000850681
0.00084986
0.000849056
0.000848301
0.000847575
0.000846896
0.000846183
0.000845484
0.00084471
0.000843954
0.000843045
0.000842219
0.000841177
0.000840338
0.000839229
0.000838476
0.00083735
0.000851549
0.000850674
0.000849861
0.000849075
0.000848343
0.000847635
0.000846974
0.000846328
0.00084572
0.000845112
0.000844541
0.000843949
0.0008434
0.000842818
0.000842292
0.000841727
0.000841236
0.000840702
0.000851539
0.000850674
0.000849855
0.000849074
0.000848334
0.000847628
0.000846958
0.000846317
0.000845708
0.000845123
0.000844567
0.00084403
0.000843519
0.000843024
0.000842552
0.000842094
0.00084166
0.000841237
0.000851537
0.000850673
0.000849852
0.00084907
0.000848327
0.000847619
0.000846946
0.000846303
0.000845691
0.000845105
0.000844547
0.000844012
0.000843503
0.000843013
0.000842546
0.000842097
0.00084167
0.000841257
0.000851539
0.000850677
0.000849857
0.000849077
0.000848335
0.000847627
0.000846953
0.00084631
0.000845696
0.00084511
0.00084455
0.000844014
0.000843502
0.000843012
0.000842543
0.000842094
0.000841664
0.000841252
0.000851537
0.000850673
0.000849851
0.000849069
0.000848324
0.000847615
0.000846939
0.000846294
0.000845678
0.00084509
0.000844528
0.00084399
0.000843476
0.000842984
0.000842514
0.000842063
0.000841631
0.000841218
0.000851537
0.000850673
0.000849852
0.000849069
0.000848325
0.000847616
0.00084694
0.000846295
0.00084568
0.000845092
0.00084453
0.000843992
0.000843478
0.000842985
0.000842515
0.000842063
0.000841632
0.000841218
0.000851538
0.000850675
0.000849854
0.000849075
0.000848332
0.000847626
0.00084695
0.000846308
0.000845691
0.000845106
0.000844541
0.000844004
0.000843484
0.000842992
0.000842513
0.00084206
0.000841619
0.000841201
0.000851542
0.000850675
0.000849861
0.000849092
0.000848345
0.000847638
0.000846941
0.000846289
0.000845647
0.000845047
0.000844442
0.000843875
0.000843293
0.000842753
0.000842191
0.00084168
0.000841133
0.000840641
0.000851561
0.000850656
0.0008499
0.000849159
0.000848331
0.000847488
0.000846497
0.000845606
0.000844637
0.000843769
0.000842774
0.000841854
0.000840841
0.00083983
0.000838713
0.000837734
0.000836505
0.000835509
0.000851583
0.000850597
0.000850178
0.000849192
0.000847375
0.000844812
0.00084133
0.000838438
0.000834846
0.00083209
0.000827627
0.00082514
0.000823033
0.000819138
0.000816666
0.000813866
0.000810308
0.000807441
0.000851434
0.000850117
0.000850169
0.000845149
0.000835877
0.00082293
0.000808311
0.000795969
0.00078194
0.000766056
0.000760013
0.000757628
0.000751164
0.000744478
0.000735943
0.00072899
0.000720146
0.000713513
0.00084795
0.000844431
0.000834812
0.000810602
0.00076847
0.00073033
0.000688045
0.000659038
0.000633106
0.000612917
0.000602523
0.000590479
0.000575501
0.00056327
0.000549028
0.000538424
0.000525468
0.000516423
0.000800434
0.000792128
0.000729021
0.000642356
0.000554555
0.000489343
0.000438189
0.000406057
0.000379739
0.000361342
0.000343143
0.000329509
0.000314585
0.000303568
0.000291377
0.000282972
0.000273084
0.000266598
0.000540272
0.000505667
0.000362429
0.000278567
0.000223071
0.000189148
0.000165926
0.000151142
0.000139794
0.0001317
0.00012462
0.000120168
0.000115137
0.000111559
0.000107459
0.000104915
0.00010173
9.99901e-05
0.000152188
9.82819e-05
7.42578e-05
6.2401e-05
5.64584e-05
5.30589e-05
5.17634e-05
5.12134e-05
5.17215e-05
5.22988e-05
5.35888e-05
5.47562e-05
5.64558e-05
5.79854e-05
5.9898e-05
6.00344e-05
6.0402e-05
6.05925e-05
9.96554e-06
1.5139e-05
1.8736e-05
2.08652e-05
2.18665e-05
2.20921e-05
2.21898e-05
2.19999e-05
2.16831e-05
2.13378e-05
2.0996e-05
2.06726e-05
2.03763e-05
2.01102e-05
1.98709e-05
1.96646e-05
1.94825e-05
1.93244e-05
1.45485e-12
1.63691e-10
8.3511e-10
3.28024e-09
1.09029e-08
3.26127e-08
8.68806e-08
1.75273e-07
2.87688e-07
4.07832e-07
5.17677e-07
6.03875e-07
6.62835e-07
6.8864e-07
6.81884e-07
6.54241e-07
6.07263e-07
5.25074e-07
4.46782e-07
3.8133e-07
3.19152e-07
2.59165e-07
1.99623e-07
1.44905e-07
9.49707e-08
5.5824e-08
2.95786e-08
1.4812e-08
7.44548e-09
3.93523e-09
2.28209e-09
1.60909e-09
1.69153e-09
2.77736e-09
4.2691e-09
5.17652e-08
1.14749e-07
2.6377e-07
4.38441e-07
5.4002e-07
5.19121e-07
4.53451e-07
3.54598e-07
2.93255e-07
2.83946e-07
3.1509e-07
3.72582e-07
6.08655e-07
1.0556e-06
2.58859e-06
7.97152e-06
2.0646e-05
3.68574e-05
5.12496e-05
5.68584e-05
5.43036e-05
4.74619e-05
4.48026e-05
4.06224e-05
3.31256e-05
3.28939e-05
3.58932e-05
3.75589e-05
2.99028e-05
3.31047e-05
3.29202e-05
3.38207e-05
3.42834e-05
3.4941e-05
3.54692e-05
3.60576e-05
3.65937e-05
3.71476e-05
3.76774e-05
3.82103e-05
3.87307e-05
3.92485e-05
3.97605e-05
4.02671e-05
4.07721e-05
4.12696e-05
4.17689e-05
4.22602e-05
4.27551e-05
4.32413e-05
4.37321e-05
4.42155e-05
4.47047e-05
4.51899e-05
4.56798e-05
4.61667e-05
4.66521e-05
4.71335e-05
4.76139e-05
4.80907e-05
4.8566e-05
4.9037e-05
4.95065e-05
4.9973e-05
5.04415e-05
5.09151e-05
5.14032e-05
5.18914e-05
5.23848e-05
5.28843e-05
5.339e-05
5.39031e-05
5.44229e-05
5.49508e-05
5.54861e-05
5.60305e-05
5.65833e-05
5.71464e-05
5.77191e-05
5.83036e-05
5.88992e-05
5.95082e-05
6.01299e-05
6.07665e-05
6.14177e-05
6.20866e-05
6.27737e-05
6.34817e-05
6.42103e-05
6.49625e-05
6.57374e-05
6.65394e-05
6.7368e-05
6.82294e-05
6.91365e-05
7.00436e-05
7.10386e-05
7.20038e-05
7.30768e-05
7.41492e-05
7.53161e-05
7.65387e-05
7.78018e-05
7.75639e-05
7.73179e-05
7.70574e-05
7.67871e-05
7.65059e-05
7.62147e-05
7.59137e-05
7.56032e-05
7.52838e-05
7.49563e-05
7.46239e-05
7.42728e-05
7.39318e-05
7.35612e-05
7.32088e-05
7.28215e-05
7.24535e-05
7.20601e-05
7.16734e-05
7.12772e-05
7.08793e-05
7.0479e-05
7.00759e-05
6.96726e-05
6.92676e-05
6.88633e-05
6.84583e-05
6.80543e-05
6.76504e-05
6.72482e-05
6.68472e-05
6.64489e-05
6.60524e-05
6.56589e-05
6.52665e-05
6.48749e-05
6.44784e-05
6.40704e-05
6.36383e-05
6.31554e-05
6.25651e-05
6.10218e-05
6.8549e-12
1.1161e-09
1.48374e-08
7.68835e-08
3.31828e-07
1.10107e-06
2.59619e-06
4.77744e-06
7.44673e-06
1.05081e-05
1.36456e-05
1.65833e-05
1.9114e-05
2.1043e-05
2.22298e-05
2.25708e-05
2.23361e-05
2.16258e-05
1.94666e-05
1.65556e-05
1.2868e-05
9.56895e-06
6.79094e-06
4.66654e-06
2.94586e-06
1.81985e-06
1.10505e-06
6.81007e-07
4.19202e-07
2.67169e-07
1.88048e-07
1.52374e-07
1.62711e-07
2.20557e-07
4.34696e-08
3.21466e-06
6.48903e-06
1.42167e-05
2.15794e-05
2.53656e-05
2.49928e-05
2.3011e-05
1.89428e-05
1.60273e-05
1.50425e-05
1.54585e-05
1.61708e-05
1.96403e-05
2.71995e-05
3.79949e-05
4.8773e-05
6.0701e-05
7.1643e-05
8.24397e-05
9.17943e-05
0.000100559
0.000110069
0.00011999
0.000132187
0.000141108
0.000154494
0.000173157
0.000185836
0.000194196
0.00020807
0.000219293
0.000230705
0.000241536
0.000251996
0.00026225
0.000272063
0.000281672
0.000290995
0.000300121
0.000309051
0.000317816
0.000326434
0.000334917
0.000343283
0.00035154
0.000359696
0.000367759
0.000375733
0.000383627
0.000391434
0.000399167
0.000406816
0.000414397
0.000421899
0.000429334
0.000436693
0.000443965
0.000451131
0.00045819
0.000465117
0.000471906
0.000478516
0.000484918
0.000491038
0.000496793
0.00050205
0.000506667
0.000511245
0.000515647
0.000519959
0.000524136
0.000528198
0.000532131
0.000535936
0.000539608
0.000543146
0.000546545
0.000549803
0.000552917
0.000555885
0.000558703
0.000561371
0.000563884
0.000566241
0.000568438
0.000570475
0.000572355
0.000574077
0.000575644
0.000577053
0.000578303
0.000579392
0.000580319
0.000581083
0.000581681
0.000582128
0.000582441
0.000582547
0.000582579
0.00058233
0.000582056
0.000581763
0.000581499
0.000581438
0.000581196
0.000580821
0.00058032
0.000579698
0.000578956
0.000578096
0.000577116
0.000576016
0.000574808
0.000573417
0.000572215
0.000570483
0.000569107
0.000567148
0.000565581
0.000563465
0.000561518
0.00055936
0.00055715
0.000554863
0.000552488
0.000550059
0.00054756
0.00054501
0.000542406
0.000539753
0.00053705
0.000534299
0.000531503
0.000528664
0.000525786
0.000522869
0.000519911
0.000516902
0.000513838
0.000510644
0.000507247
0.000503516
0.000499153
0.000493405
0.000477539
1.58457e-11
2.68382e-09
5.06196e-08
3.02441e-07
1.14703e-06
2.7116e-06
5.85281e-06
1.02528e-05
1.5751e-05
2.20677e-05
2.88382e-05
3.56082e-05
4.17747e-05
4.69816e-05
5.10157e-05
5.36281e-05
5.5194e-05
5.57405e-05
5.44609e-05
5.18412e-05
4.72534e-05
4.16781e-05
3.466e-05
2.75042e-05
2.09555e-05
1.52096e-05
1.04406e-05
7.00223e-06
4.44361e-06
2.88945e-06
1.96148e-06
1.45261e-06
1.25591e-06
1.51463e-06
2.0722e-06
1.40714e-05
2.99321e-05
5.245e-05
6.62915e-05
6.98559e-05
6.37397e-05
4.97303e-05
4.1417e-05
4.19635e-05
4.76337e-05
5.45709e-05
6.42592e-05
7.59952e-05
8.82685e-05
0.000100895
0.000117985
0.000136727
0.000158228
0.000181821
0.000207426
0.000235548
0.000264295
0.00029437
0.000325618
0.000354137
0.00038385
0.000413512
0.000439736
0.000464711
0.000489648
0.000512932
0.000535474
0.000557001
0.00057788
0.000598124
0.00061775
0.000636932
0.000655662
0.000674037
0.000692079
0.000709834
0.000727326
0.000744578
0.000761611
0.000778436
0.000795064
0.000811501
0.000827756
0.000843829
0.000859721
0.000875433
0.00089096
0.000906303
0.000921458
0.00093642
0.000951179
0.000965706
0.000979976
0.000993971
0.00100766
0.00102103
0.00103402
0.0010466
0.00105874
0.00107038
0.00108153
0.00109232
0.00110291
0.00111322
0.00112329
0.00113308
0.00114262
0.00115188
0.00116086
0.00116955
0.00117794
0.00118603
0.00119382
0.00120129
0.00120844
0.00121527
0.00122176
0.00122792
0.00123374
0.00123922
0.00124435
0.00124914
0.00125359
0.0012577
0.00126147
0.00126491
0.001268
0.00127075
0.00127316
0.00127523
0.00127698
0.00127841
0.00127948
0.0012803
0.00128069
0.0012809
0.00128101
0.00128095
0.00128073
0.00128019
0.00127936
0.00127826
0.00127688
0.00127523
0.00127331
0.00127113
0.00126869
0.00126605
0.00126303
0.00126009
0.00125646
0.0012531
0.00124896
0.00124512
0.00124059
0.00123612
0.00123133
0.00122637
0.00122123
0.00121592
0.00121047
0.00120488
0.00119917
0.00119335
0.00118742
0.00118139
0.00117526
0.00116904
0.00116274
0.00115635
0.0011499
0.00114336
0.00113673
0.00112996
0.00112295
0.00111552
0.00110739
0.0010978
0.00108488
0.00105612
6.08618e-11
1.0305e-08
1.68729e-07
7.142e-07
2.33492e-06
6.33988e-06
1.27867e-05
2.14823e-05
3.18855e-05
4.29448e-05
5.37248e-05
6.37701e-05
7.24895e-05
7.93578e-05
8.44758e-05
8.79606e-05
8.94974e-05
8.95178e-05
8.81633e-05
8.52797e-05
8.08767e-05
7.55673e-05
6.83695e-05
5.99263e-05
5.04258e-05
4.08261e-05
3.17213e-05
2.4081e-05
1.78949e-05
1.31926e-05
9.68303e-06
7.36331e-06
6.44198e-06
8.38032e-06
1.77352e-05
3.97371e-05
6.34728e-05
8.00629e-05
8.6694e-05
8.10117e-05
7.64623e-05
7.58674e-05
7.93094e-05
8.69002e-05
9.8106e-05
0.000110182
0.000122253
0.000142283
0.000163884
0.000190398
0.00022219
0.000257078
0.00029597
0.000337133
0.000380117
0.000423864
0.000467772
0.000511604
0.000554638
0.000595986
0.000636431
0.000674701
0.000711681
0.000746795
0.000780991
0.000813651
0.000845258
0.00087584
0.000905608
0.00093462
0.000962965
0.000990751
0.00101802
0.00104485
0.00107127
0.00109732
0.00112303
0.00114842
0.0011735
0.00119829
0.00122279
0.00124701
0.00127095
0.0012946
0.00131797
0.00134105
0.00136383
0.0013863
0.00140846
0.0014303
0.00145179
0.00147292
0.00149366
0.00151397
0.00153384
0.00155324
0.00157216
0.00159058
0.00160849
0.00162589
0.00164283
0.00165937
0.00167555
0.00169134
0.00170675
0.00172175
0.00173635
0.00175053
0.00176428
0.0017776
0.00179048
0.00180289
0.00181485
0.00182634
0.00183735
0.00184787
0.00185791
0.00186744
0.00187647
0.00188499
0.00189301
0.00190051
0.00190752
0.00191402
0.00192003
0.00192554
0.00193054
0.00193505
0.00193907
0.00194261
0.00194566
0.00194824
0.00195032
0.00195198
0.00195308
0.00195386
0.00195444
0.00195459
0.00195436
0.00195369
0.0019526
0.00195109
0.00194917
0.00194686
0.00194414
0.00194103
0.00193754
0.00193372
0.00192943
0.00192499
0.00191991
0.00191478
0.00190898
0.00190314
0.0018967
0.00189008
0.00188309
0.00187582
0.00186828
0.00186049
0.00185248
0.00184426
0.00183586
0.00182729
0.00181856
0.00180968
0.00180065
0.00179148
0.00178219
0.00177279
0.00176329
0.00175368
0.00174394
0.00173401
0.00172377
0.001713
0.00170131
0.00168767
0.00166953
0.00163545
2.05437e-10
3.12919e-08
3.75117e-07
1.77704e-06
6.11049e-06
1.49453e-05
2.80298e-05
4.39123e-05
6.06969e-05
7.66679e-05
9.06731e-05
0.000101734
0.000109831
0.000115693
0.000119166
0.000120897
0.000121064
0.000119807
0.000117295
0.000113652
0.000108606
0.000102796
9.56407e-05
8.73084e-05
7.75385e-05
6.68035e-05
5.55751e-05
4.51006e-05
3.61202e-05
2.9024e-05
2.34506e-05
1.94324e-05
2.04637e-05
3.12736e-05
5.54618e-05
7.92707e-05
9.24744e-05
9.79974e-05
0.00010003
0.000102233
0.000107281
0.000116254
0.000129875
0.000139489
0.000152654
0.00017451
0.000202608
0.0002346
0.000272344
0.000315177
0.000362254
0.000411956
0.000464282
0.00051762
0.000571491
0.000625067
0.000677992
0.000729988
0.000780665
0.000829735
0.000877066
0.000922874
0.000967316
0.00101005
0.00105151
0.00109166
0.00113071
0.00116878
0.00120597
0.00124239
0.00127811
0.00131321
0.00134776
0.00138179
0.00141535
0.00144847
0.00148116
0.00151346
0.00154535
0.00157687
0.00160799
0.00163873
0.00166908
0.00169904
0.0017286
0.00175776
0.0017865
0.00181482
0.0018427
0.00187014
0.00189712
0.00192361
0.00194959
0.00197504
0.00199995
0.00202431
0.0020481
0.00207133
0.00209401
0.00211615
0.00213778
0.00215892
0.00217956
0.00219971
0.00221934
0.00223846
0.00225706
0.00227512
0.00229263
0.00230958
0.00232597
0.00234178
0.00235701
0.00237164
0.00238567
0.00239909
0.0024119
0.00242409
0.00243565
0.00244657
0.00245687
0.00246654
0.00247559
0.00248401
0.00249182
0.00249901
0.00250558
0.00251155
0.00251691
0.00252168
0.00252584
0.00252944
0.00253241
0.00253485
0.00253661
0.00253799
0.00253898
0.00253942
0.00253933
0.00253871
0.00253756
0.00253591
0.00253374
0.00253108
0.00252792
0.00252427
0.00252015
0.00251559
0.00251051
0.00250508
0.00249908
0.00249277
0.00248589
0.00247869
0.00247098
0.0024629
0.00245442
0.00244556
0.00243637
0.00242685
0.00241706
0.00240699
0.00239669
0.00238616
0.00237543
0.00236449
0.00235337
0.00234207
0.0023306
0.002319
0.00230726
0.00229538
0.00228333
0.00227107
0.00225848
0.00224535
0.00223127
0.0022152
0.00219424
0.00215989
6.51359e-10
7.75167e-08
9.28666e-07
4.67918e-06
1.56203e-05
3.35063e-05
5.54931e-05
7.83995e-05
9.8988e-05
0.000115655
0.000128097
0.000137387
0.000143231
0.00014637
0.000147515
0.000147137
0.000145522
0.000142829
0.000139197
0.00013464
0.000128944
0.000122687
0.000115364
0.000106796
9.7064e-05
8.6037e-05
7.06729e-05
5.60947e-05
4.29325e-05
3.29193e-05
2.96501e-05
3.32546e-05
4.86014e-05
7.36541e-05
9.53349e-05
0.000109755
0.000118065
0.000123375
0.000129798
0.000140709
0.000157
0.000165089
0.000178751
0.000201763
0.000230638
0.000265897
0.000307716
0.000354342
0.000406088
0.000461108
0.000518721
0.00057783
0.000638019
0.00069834
0.00075838
0.00081766
0.000875974
0.000932779
0.000988315
0.00104285
0.00109573
0.00114697
0.00119679
0.00124521
0.0012924
0.00133841
0.00138337
0.00142739
0.00147054
0.00151291
0.00155457
0.00159557
0.00163598
0.00167582
0.00171513
0.00175392
0.00179221
0.00183001
0.00186733
0.00190416
0.00194051
0.00197637
0.00201173
0.00204659
0.00208095
0.00211478
0.0021481
0.00218088
0.00221312
0.00224481
0.00227594
0.00230649
0.00233644
0.00236578
0.00239449
0.00242258
0.00245004
0.00247687
0.0025031
0.00252873
0.00255376
0.00257821
0.00260206
0.00262531
0.00264796
0.00267
0.00269141
0.0027122
0.00273236
0.00275186
0.00277071
0.00278889
0.00280639
0.00282322
0.00283937
0.00285482
0.00286957
0.00288362
0.00289696
0.0029096
0.00292152
0.00293274
0.00294326
0.00295308
0.0029622
0.00297063
0.00297838
0.00298544
0.00299183
0.00299755
0.00300264
0.00300701
0.00301074
0.00301382
0.00301616
0.0030181
0.00301949
0.00302024
0.0030204
0.00301996
0.00301894
0.00301734
0.00301517
0.00301244
0.00300916
0.00300532
0.00300094
0.00299606
0.00299064
0.00298474
0.00297829
0.00297139
0.00296396
0.00295607
0.00294767
0.00293882
0.00292952
0.00291979
0.00290967
0.00289919
0.00288836
0.00287722
0.0028658
0.00285411
0.00284216
0.00282997
0.00281756
0.00280493
0.0027921
0.0027791
0.00276595
0.00275263
0.00273915
0.00272545
0.00271145
0.00269695
0.00268161
0.0026645
0.00264302
0.00261055
2.07125e-09
1.94912e-07
2.4453e-06
1.29104e-05
3.45423e-05
6.26166e-05
8.98991e-05
0.000112408
0.000129872
0.000143122
0.000152991
0.000159271
0.000162789
0.000164204
0.000164044
0.000162658
0.00016026
0.000156976
0.000152795
0.000147703
0.000141622
0.000134776
0.000126662
0.000116515
9.93805e-05
8.40032e-05
7.04859e-05
5.85847e-05
5.02588e-05
4.9715e-05
6.03456e-05
7.74778e-05
0.000103759
0.000121615
0.000134958
0.000144322
0.000152416
0.000163575
0.000180818
0.000188407
0.000201116
0.000223384
0.000251399
0.000286789
0.000328689
0.000377005
0.000430609
0.000487912
0.000548324
0.000610599
0.000674194
0.000738439
0.000802883
0.000866985
0.000930465
0.000992703
0.00105398
0.00111466
0.00117376
0.0012316
0.00128802
0.00134309
0.00139688
0.00144944
0.00150087
0.00155124
0.00160062
0.0016491
0.00169674
0.00174361
0.00178976
0.00183524
0.00188008
0.00192432
0.00196796
0.00201103
0.00205352
0.00209544
0.00213679
0.00217757
0.00221777
0.00225738
0.00229639
0.00233482
0.00237263
0.00240984
0.00244642
0.00248238
0.00251771
0.00255241
0.00258648
0.00261989
0.00265264
0.00268471
0.00271609
0.00274678
0.00277679
0.00280611
0.00283473
0.00286265
0.0028899
0.00291649
0.0029424
0.00296765
0.00299221
0.0030161
0.0030393
0.00306181
0.00308362
0.00310472
0.00312512
0.00314483
0.00316382
0.00318209
0.00319962
0.00321641
0.00323246
0.00324777
0.00326232
0.00327612
0.00328916
0.00330146
0.00331301
0.00332382
0.00333389
0.00334322
0.00335182
0.0033597
0.00336685
0.00337334
0.00337909
0.00338408
0.00338841
0.00339202
0.00339487
0.00339728
0.00339903
0.00340011
0.00340055
0.00340036
0.00339954
0.0033981
0.00339606
0.00339342
0.00339022
0.00338647
0.00338217
0.00337732
0.00337191
0.00336597
0.00335948
0.00335247
0.00334493
0.00333688
0.00332831
0.00331924
0.00330969
0.00329969
0.00328926
0.00327842
0.00326721
0.00325565
0.00324376
0.00323157
0.00321908
0.00320632
0.00319329
0.00318002
0.00316652
0.00315282
0.00313894
0.00312488
0.00311066
0.00309623
0.00308155
0.00306645
0.00305066
0.00303344
0.00301274
0.00298332
6.25177e-09
5.13925e-07
6.51933e-06
2.82306e-05
6.08912e-05
9.45657e-05
0.000122978
0.000144509
0.000159542
0.000169085
0.000174034
0.000176148
0.000176521
0.000175626
0.000173762
0.000171127
0.000167756
0.000163507
0.000158349
0.00015227
0.000145486
0.000137764
0.000127302
0.000109592
9.33967e-05
7.98221e-05
7.01795e-05
6.74503e-05
7.26808e-05
8.31342e-05
0.000105696
0.000132696
0.000156754
0.000169102
0.000179325
0.000190997
0.000201993
0.000208723
0.000220862
0.000240655
0.000266518
0.000300088
0.000340083
0.000386947
0.000439621
0.000497213
0.000558257
0.000621626
0.00068668
0.00075271
0.000819276
0.000885962
0.000952432
0.00101807
0.0010829
0.00114745
0.00121086
0.00127314
0.0013342
0.00139408
0.00145275
0.00151024
0.0015666
0.00162186
0.0016761
0.00172937
0.00178172
0.00183322
0.00188391
0.00193386
0.00198309
0.00203165
0.00207955
0.00212682
0.00217347
0.00221949
0.00226487
0.00230962
0.00235373
0.00239719
0.00244
0.00248213
0.00252359
0.00256438
0.00260449
0.00264391
0.00268264
0.00272067
0.00275801
0.00279467
0.00283063
0.0028659
0.00290045
0.00293428
0.00296738
0.00299976
0.0030314
0.0030623
0.00309245
0.00312186
0.00315055
0.00317854
0.00320581
0.00323237
0.00325821
0.00328333
0.00330773
0.0033314
0.00335434
0.00337654
0.00339801
0.00341873
0.0034387
0.00345792
0.00347638
0.00349408
0.00351103
0.0035272
0.0035426
0.00355724
0.0035711
0.0035842
0.00359653
0.0036081
0.00361892
0.00362897
0.00363828
0.00364685
0.00365469
0.00366185
0.00366818
0.0036738
0.00367872
0.00368287
0.00368631
0.00368923
0.00369144
0.00369297
0.00369384
0.00369406
0.00369363
0.00369257
0.00369088
0.00368859
0.00368569
0.00368219
0.00367812
0.00367347
0.00366826
0.00366249
0.00365616
0.00364929
0.00364187
0.00363392
0.00362544
0.00361643
0.00360693
0.00359695
0.00358652
0.00357566
0.0035644
0.00355276
0.00354076
0.00352842
0.00351577
0.0035028
0.00348953
0.00347599
0.00346219
0.00344817
0.00343394
0.00341953
0.00340494
0.00339017
0.00337518
0.00335986
0.00334402
0.00332708
0.0033076
0.00328173
1.65042e-08
1.28012e-06
1.49362e-05
4.84483e-05
8.81871e-05
0.000122472
0.000148488
0.000166976
0.000178595
0.0001849
0.000187299
0.000186942
0.000184769
0.000181496
0.000177609
0.00017328
0.000168455
0.000163148
0.000157245
0.000150606
0.000143291
0.000135154
0.000121145
0.00010864
0.000100967
9.81393e-05
9.28623e-05
9.62872e-05
0.000112255
0.000133958
0.00015687
0.000178267
0.000195697
0.000207944
0.000216782
0.000225665
0.000237178
0.000254771
0.000277803
0.000308242
0.000345217
0.000388985
0.00043865
0.000493862
0.000553445
0.000616261
0.000681147
0.000747369
0.00081445
0.000881962
0.000949578
0.00101688
0.00108349
0.00114988
0.00121566
0.00128053
0.00134437
0.00140719
0.00146893
0.00152962
0.00158923
0.0016478
0.00170535
0.00176192
0.00181757
0.00187233
0.00192626
0.00197938
0.00203174
0.00208339
0.00213436
0.00218467
0.00223435
0.00228341
0.00233184
0.00237962
0.00242673
0.00247317
0.00251893
0.00256398
0.00260833
0.00265195
0.00269484
0.002737
0.00277843
0.00281914
0.00285917
0.00289847
0.00293703
0.00297485
0.00301192
0.00304826
0.00308384
0.00311867
0.00315273
0.00318603
0.00321857
0.00325035
0.00328138
0.00331167
0.00334122
0.00337002
0.00339808
0.00342539
0.00345195
0.00347777
0.00350284
0.00352716
0.00355074
0.00357356
0.00359563
0.00361695
0.00363751
0.00365731
0.00367636
0.00369465
0.00371217
0.00372893
0.00374493
0.00376015
0.00377461
0.00378831
0.00380125
0.00381342
0.00382484
0.0038355
0.00384541
0.00385458
0.00386306
0.00387078
0.0038777
0.00388392
0.00388943
0.00389416
0.00389822
0.00390168
0.00390443
0.0039065
0.00390789
0.00390863
0.00390873
0.00390818
0.00390702
0.00390523
0.00390284
0.00389986
0.00389629
0.00389215
0.00388744
0.00388217
0.00387635
0.00386998
0.00386306
0.00385561
0.00384761
0.00383909
0.00383006
0.00382054
0.00381057
0.00380014
0.0037893
0.00377806
0.00376644
0.00375446
0.00374213
0.00372945
0.00371646
0.00370315
0.00368957
0.00367573
0.00366167
0.0036474
0.00363295
0.00361833
0.0036035
0.00358843
0.00357297
0.00355667
0.00353826
0.00351537
3.73632e-08
2.9837e-06
2.74932e-05
7.19426e-05
0.000116028
0.000150467
0.000173764
0.000187912
0.000195315
0.000197221
0.000195534
0.00019165
0.00018655
0.000180836
0.000174857
0.000168613
0.000162024
0.000155199
0.000147874
0.000140134
0.000131701
0.000122458
0.000113501
0.000106828
0.000105068
0.000110411
0.000122627
0.000139895
0.000158949
0.000178608
0.000197024
0.000212316
0.000224227
0.000236192
0.000249147
0.000265628
0.000286329
0.000313476
0.000346796
0.000386644
0.000432335
0.000483558
0.000539558
0.000599628
0.000662685
0.000727744
0.000794014
0.000861001
0.000928352
0.000995783
0.00106271
0.00112934
0.00119585
0.00126157
0.00132649
0.00139054
0.00145364
0.00151578
0.00157695
0.00163714
0.00169637
0.00175465
0.00181201
0.00186851
0.00192417
0.00197906
0.0020332
0.00208662
0.00213932
0.00219137
0.00224281
0.00229366
0.00234393
0.00239365
0.00244283
0.00249154
0.00253974
0.00258725
0.00263401
0.00268001
0.00272524
0.00276968
0.00281332
0.00285615
0.00289818
0.00293942
0.00297982
0.00301943
0.0030583
0.00309644
0.00313386
0.00317057
0.00320656
0.00324181
0.00327632
0.0033101
0.00334313
0.00337542
0.00340696
0.00343776
0.00346779
0.00349707
0.00352558
0.00355333
0.00358032
0.00360655
0.00363202
0.00365674
0.0036807
0.00370391
0.00372636
0.00374807
0.00376903
0.00378924
0.00380871
0.00382742
0.00384539
0.00386261
0.00387909
0.00389481
0.00390978
0.00392401
0.00393749
0.00395023
0.00396222
0.00397347
0.00398398
0.00399378
0.00400288
0.00401117
0.00401875
0.00402561
0.00403177
0.00403716
0.0040419
0.00404599
0.00404938
0.00405209
0.00405414
0.00405553
0.00405627
0.00405639
0.00405588
0.00405476
0.00405305
0.00405074
0.00404786
0.00404441
0.00404041
0.00403585
0.00403074
0.00402509
0.0040189
0.00401216
0.0040049
0.00399711
0.00398881
0.00398002
0.00397076
0.00396106
0.00395092
0.00394037
0.00392943
0.0039181
0.00390639
0.00389432
0.0038819
0.00386914
0.00385609
0.00384275
0.00382916
0.00381535
0.00380134
0.00378714
0.00377277
0.0037582
0.00374335
0.00372789
0.00371076
0.00369118
7.2442e-08
6.21959e-06
4.1776e-05
9.23614e-05
0.00013772
0.000171404
0.000192844
0.000203533
0.000206624
0.000204714
0.000199688
0.000192879
0.000185182
0.000176973
0.000168538
0.00016035
0.000151901
0.000144272
0.000137511
0.000131449
0.000126473
0.000123684
0.00012427
0.00012888
0.000137639
0.000150078
0.00016525
0.000181893
0.000198736
0.000214378
0.000227701
0.000241315
0.000256434
0.000273133
0.000292737
0.000317165
0.000346994
0.000382764
0.000424084
0.000470705
0.000522062
0.00057769
0.000636911
0.000698968
0.000762988
0.000828221
0.000894114
0.000960297
0.00102634
0.00109194
0.00115761
0.00122276
0.00128722
0.0013509
0.00141371
0.00147561
0.00153661
0.00159669
0.00165587
0.00171417
0.00177162
0.00182819
0.00188392
0.00193891
0.00199321
0.00204686
0.00209993
0.00215252
0.00220487
0.00225679
0.00230818
0.00235903
0.00240934
0.00245911
0.00250835
0.00255699
0.00260495
0.00265226
0.00269882
0.00274466
0.00278976
0.00283409
0.00287764
0.00292039
0.00296236
0.00300356
0.00304401
0.00308375
0.00312277
0.00316109
0.00319872
0.00323566
0.00327192
0.00330747
0.00334231
0.00337644
0.00340984
0.00344251
0.00347443
0.00350561
0.00353602
0.00356568
0.00359457
0.00362269
0.00365004
0.00367662
0.00370244
0.0037275
0.00375181
0.00377536
0.00379817
0.00382024
0.00384158
0.00386218
0.00388205
0.00390119
0.00391961
0.0039373
0.00395427
0.00397051
0.00398603
0.00400082
0.00401489
0.00402823
0.00404086
0.00405276
0.00406395
0.00407445
0.00408419
0.00409322
0.00410154
0.00410914
0.00411604
0.00412222
0.00412775
0.00413259
0.00413674
0.00414023
0.00414305
0.00414522
0.00414676
0.00414767
0.00414797
0.00414767
0.00414677
0.0041453
0.00414326
0.00414066
0.00413751
0.00413383
0.0041296
0.00412485
0.00411955
0.00411372
0.00410736
0.00410048
0.0040931
0.00408523
0.00407689
0.0040681
0.00405888
0.00404923
0.00403918
0.00402872
0.00401786
0.00400661
0.00399499
0.00398301
0.0039707
0.00395809
0.0039452
0.00393206
0.0039187
0.00390515
0.00389142
0.00387751
0.0038634
0.00384884
0.00383291
0.0038162
1.18293e-07
1.0963e-05
5.80084e-05
0.000115496
0.00016176
0.000192613
0.000209641
0.00021627
0.000215818
0.000210884
0.000203367
0.000194493
0.000185008
0.00017613
0.000167416
0.000159852
0.000153144
0.000147989
0.000144789
0.000143571
0.000144797
0.00014864
0.000155237
0.000164471
0.000175965
0.000189173
0.000203502
0.000217799
0.00023113
0.000244855
0.000260827
0.000278495
0.000297656
0.000320429
0.000347496
0.000379536
0.000416589