/*--------------------------------*- C++ -*----------------------------------*\
  =========                 |
  \\      /  F ield         | OpenFOAM: The Open Source CFD Toolbox
   \\    /   O peration     | Website:  https://openfoam.org
    \\  /    A nd           | Version:  13
     \\/     M anipulation  |
\*---------------------------------------------------------------------------*/
FoamFile
{
    format      ascii;
    class       volScalarField;
    location    "1700";
    object      omega;
}
// * * * * * * * * * * * * * * * * * * * * * * * * * * * * * * * * * * * * * //

dimensions      [0 0 -1 0 0 0 0];

internalField   nonuniform List<scalar> 
12225
(
31477.7
31477.7
45891
40968.2
43991.7
40022.3
37290.8
31477.7
31477.7
31477.7
31477.7
31477.7
31477.7
31477.7
31477.7
31477.7
31477.7
31477.7
717671
349027
131963
57637.4
26418.4
13332
7741.07
1344.1
6854.75
18390.6
23965.4
24595.3
27032.3
21497.8
20400.3
22101.8
22514.3
22576.9
145815
80609.4
59970.4
36054.6
12857.5
17738.1
18187.2
17104.6
14882.8
13724.9
12177.9
11596.9
11378.4
10721.8
10157.7
9902.66
9585.87
9492.2
32060.2
28003.7
15328.8
3553.67
13634.3
17522.4
13886.1
10398.5
7194.81
5468.84
5462.68
5254
5070.69
4970.18
4851.4
5015.9
4716.74
4902.25
6853.4
9430.3
16716.1
16595.4
15941.7
12769
8751.82
5965.26
4059.84
3253
2632.56
2730.77
2645.89
2623.26
2603.73
2824.35
2647.21
2651.08
3377.7
0.32373
4340.19
5723.99
6062.1
5043.05
3666
2758.2
1979.62
2077.71
1921.56
1821.7
1761.42
1753.4
1779.44
1754.61
1750.26
1752.6
423.311
0.357808
1424.69
2481.39
2549.85
2071.7
1672.48
1306.44
1364.14
1221.01
1166.7
1154.13
1155.46
1185.18
1211.62
1201.9
1240.26
1210.13
76.125
575.478
422.114
1024.11
1164.05
1047.53
868.082
916.078
844.059
797.157
793.624
798.224
804.903
825.181
845.392
876.152
868.824
872.218
331.697
526.602
474.999
591.463
644.15
604.32
645.944
627.078
596.211
582.709
586.519
597.175
609.712
622.992
637.215
649.321
663.427
663.595
422.194
427.948
443.734
473.969
490.156
478.588
501.758
489.149
483.798
483.356
486.984
493.128
500.274
508.289
515.697
523.079
530.151
533.753
438.352
432.543
433.642
438.543
444.633
442.384
448.669
447.05
443.925
443.001
444.01
446.154
448.903
452.327
455.332
459.054
461.316
465.408
438.326
436.465
434.7
433.638
433.247
432.065
431.179
429.993
429.909
429.12
428.655
428.738
429.248
430.128
430.941
432.144
432.773
434.258
438.838
436.741
434.675
432.777
431.083
429.396
427.825
426.382
425.079
423.927
422.932
422.153
421.489
421.09
420.624
420.451
419.943
420.029
438.973
436.771
434.667
432.672
430.783
428.984
427.274
425.664
424.141
422.726
421.389
420.192
419.037
418.047
417.035
416.204
415.272
414.558
438.997
436.774
434.659
432.656
430.748
428.94
427.215
425.579
424.018
422.542
421.131
419.807
418.537
417.352
416.207
415.141
414.1
413.135
439
436.773
434.657
432.649
430.741
428.927
427.202
425.561
423.999
422.511
421.094
419.744
418.458
417.233
416.064
414.951
413.885
412.871
439.001
436.772
434.655
432.645
430.735
428.919
427.192
425.549
423.984
422.495
421.074
419.722
418.431
417.201
416.026
414.906
413.834
412.813
438.999
436.769
434.65
432.638
430.725
428.908
427.179
425.534
423.967
422.475
421.053
419.698
418.405
417.173
415.996
414.873
413.8
412.776
439
436.771
434.653
432.642
430.73
428.913
427.183
425.538
423.971
422.479
421.056
419.701
418.407
417.174
415.996
414.873
413.799
412.775
439
436.773
434.655
432.646
430.734
428.919
427.189
425.546
423.979
422.488
421.065
419.711
418.417
417.185
416.007
414.884
413.811
412.787
439.001
436.773
434.658
432.648
430.74
428.924
427.199
425.555
423.992
422.501
421.083
419.728
418.44
417.209
416.037
414.916
413.849
412.827
439
436.776
434.662
432.651
430.748
428.936
427.225
425.59
424.043
422.562
421.166
419.829
418.572
417.365
416.234
415.141
414.124
413.136
438.993
436.791
434.651
432.635
430.778
429.038
427.474
425.96
424.574
423.225
422.017
420.848
419.795
418.811
417.94
417.064
416.363
415.602
438.989
436.825
434.533
432.658
431.298
430.409
430.077
429.551
429.471
429.051
429.588
429.18
428.639
429.1
428.875
428.887
429.339
429.488
439.086
437.07
434.607
434.826
437.246
441.732
447.355
452.045
457.971
465.342
466.993
466.502
468.584
470.916
474.515
477.238
481.278
483.993
440.94
440.064
442.892
453.677
475.587
497.245
524.497
544.496
563.81
579.464
586.587
595.709
608.253
618.518
631.521
641.017
653.717
662.198
467.427
469.839
508.642
574.504
660.276
741.767
821.707
880.599
935.892
977.49
1023.12
1059.39
1102.55
1135.3
1174.88
1202.4
1238.03
1260.73
696.758
745.794
1042.74
1353.32
1677.09
1954.17
2206.96
2399.6
2578.54
2712.85
2847.61
2946.91
3059.55
3142.18
3240.24
3309.22
3393.93
3449.3
2621.02
4206.97
5926.42
7359
8410.62
9132.6
9597.43
9883.28
10026.3
10098.8
10098.2
10080.2
10036.4
9982.95
9938
9897.15
9872.76
9860.23
18117.5
22719.4
25244.4
26433.6
26788
26782.7
26649.8
26363.1
26035.9
25702.2
25380.7
25079.8
24804
24554.4
24328.6
24129
23949.4
23790.1
11463.2
2514.24
2516.41
2518.61
2520.83
2523.07
2525.32
2527.6
2529.9
2532.22
2534.57
2536.93
2539.31
2541.72
2544.15
2546.6
2549.08
2551.57
2554.09
2556.64
2559.2
2561.79
2564.41
2567.05
2569.71
2572.4
2575.12
2577.86
2580.62
2583.41
2586.23
2589.08
2591.95
2594.85
2597.77
2600.73
2603.71
2606.72
2609.76
2612.82
2615.92
2619.05
2622.2
2625.39
2628.61
2631.86
2635.14
2638.45
2641.79
2645.17
2648.58
2652.02
2655.5
2659.01
2662.55
2666.13
2669.74
2673.39
2677.08
3239
3425.31
3208.62
2692.19
3271.2
3358.03
3444.29
3534.96
3610.67
3692.3
3765.33
3839.44
3909.43
3978.68
4045.53
4111.18
4175.19
4237.86
4299.33
4359.43
4418.61
4476.38
4533.39
4589.01
4643.96
4697.52
4750.4
4801.95
4852.8
4902.44
4951.3
4999.01
5045.66
5091.08
5135.39
5178.4
5220.22
5260.66
5299.83
5337.63
5374.25
5409.86
5445.02
5478.98
5512.02
5544.1
5575.19
5605.34
5634.46
5662.62
5689.73
5715.84
5740.9
5764.94
5787.91
5809.87
5830.73
5850.57
5869.32
5887.03
5903.64
5919.23
5933.77
5947.36
5959.91
5971.52
5982.08
5991.71
6000.29
6007.94
6015.08
6021.44
6025.34
6030.68
6032.1
6035.14
6036.76
6038.24
6038.5
6036.94
6034.85
6031.69
6027.85
6023.22
6017.86
6011.8
6005.03
5997.59
5989.53
5980.89
5971.88
5961.76
5951.77
5940.45
5929.47
5917.08
5904.95
5892
5878.95
5865.55
5851.97
5838.26
5824.45
5810.61
5796.78
5782.98
5769.24
5755.59
5742.07
5728.73
5715.61
5702.75
5690.13
5677.7
5665.33
5652.64
5638.93
5623.19
5602.91
5573.09
5458.05
11463.2
1993.05
1001.92
820.325
702.605
613.889
618.123
617.601
609.658
589.325
566.585
543.61
522.414
504.714
492.627
483.877
483.082
484.685
510.54
554.677
636.852
737.096
847.606
958.694
1061.16
1142.31
1191.3
1185.43
1149.63
1065.63
931.896
777.282
634.226
554.663
495.214
453.131
443.882
449.08
466.967
495.915
531.446
560.534
626.453
735.282
866.214
1069.39
1369.3
1653.09
1844.52
1972.56
2035.65
2052.94
2039.44
1994.92
1946.97
1897.14
1855.24
1812.48
1762.64
1766.65
1743.22
1661.52
1650.11
1669.99
1654.47
1653.67
1652.85
1653.93
1657.15
1660.38
1665.63
1671.15
1677.64
1684.47
1691.76
1699.29
1707.03
1714.91
1722.85
1730.83
1738.78
1746.72
1754.56
1762.33
1769.96
1777.48
1784.83
1792.03
1799.05
1805.88
1812.5
1818.87
1825.05
1831.02
1836.84
1842.51
1848.12
1853.75
1859.6
1865.91
1873.11
1881.69
1889.79
1897.85
1905.62
1913.21
1920.55
1927.69
1934.59
1941.27
1947.73
1953.96
1959.96
1965.74
1971.29
1976.62
1981.73
1986.61
1991.28
1995.72
1999.96
2004
2007.83
2011.45
2014.87
2018.09
2021.11
2023.94
2026.59
2029.08
2031.34
2033.37
2035.34
2036.95
2038.63
2040.03
2041.16
2041.62
2041.18
2040.64
2039.9
2038.99
2037.89
2036.6
2035.15
2033.53
2031.78
2029.85
2028.04
2025.04
2023.34
2019.91
2017.99
2014.24
2011.87
2008.49
2005.41
2002.12
1998.75
1995.36
1991.87
1988.37
1984.82
1981.26
1977.68
1974.1
1970.53
1966.97
1963.45
1959.97
1956.56
1953.22
1949.98
1946.82
1943.86
1941.14
1938.75
1937.18
1935.48
1944.21
11463.2
2005.38
804.239
614.802
645.684
663.062
643.779
593.736
536.593
481.536
432.337
390.612
357.637
331.637
311.557
296.064
285.116
276.837
274.216
275.998
286.646
303.411
334.412
376.849
431.412
491.593
556.492
607.248
648.1
646.673
632.08
593.812
528.548
454.971
396.03
369.024
374.931
394.463
421.802
464.974
543.06
656.513
819.837
1008.54
1171.87
1311.82
1439.38
1514.38
1539.91
1538.95
1493.78
1442.22
1383.05
1326.6
1276.94
1235.33
1201.04
1170.32
1145.59
1131.87
1117.89
1104.12
1099.59
1097.49
1094.57
1094.27
1094.67
1096.23
1098.34
1100.94
1104.08
1107.48
1111.19
1115.08
1119.14
1123.3
1127.54
1131.84
1136.17
1140.53
1144.88
1149.22
1153.53
1157.81
1162.05
1166.24
1170.38
1174.45
1178.47
1182.44
1186.34
1190.17
1193.96
1197.71
1201.46
1205.21
1209.01
1212.89
1216.9
1221.07
1225.42
1229.8
1234
1238.13
1242.11
1245.99
1249.74
1253.36
1256.87
1260.24
1263.5
1266.62
1269.63
1272.5
1275.25
1277.87
1280.37
1282.74
1284.99
1287.12
1289.12
1291
1292.76
1294.4
1295.91
1297.3
1298.57
1299.73
1300.76
1301.67
1302.46
1303.13
1303.7
1304.11
1304.45
1304.62
1304.6
1304.34
1303.84
1303.25
1302.55
1301.74
1300.82
1299.79
1298.65
1297.42
1296.08
1294.59
1293.15
1291.28
1289.76
1287.66
1286.01
1283.76
1281.87
1279.65
1277.48
1275.22
1272.9
1270.54
1268.13
1265.69
1263.2
1260.7
1258.17
1255.63
1253.07
1250.52
1247.97
1245.43
1242.92
1240.46
1238.07
1235.78
1233.67
1231.86
1230.49
1230.2
1231.33
1241.28
11463.2
2029.15
971.761
931.302
884.398
766.049
654.217
550.644
466.814
403.757
356.37
318.894
289.617
267.091
249.852
236.733
226.923
219.761
214.901
212.826
213.719
216.396
224.328
237.298
257.715
285.079
319.686
355.641
390.977
416.475
429.072
426.236
407.823
383.488
398.205
464.175
538.274
585.141
634.376
706.095
814.467
947.836
1057.89
1134.58
1201.91
1251.22
1269.99
1230.62
1196.27
1150.6
1099.91
1055.92
1015.1
981.33
953.45
931.527
914.227
900.297
889.921
882.778
877.257
874.304
872.454
872.248
872.371
873.526
875.171
877.306
879.745
882.46
885.403
888.504
891.746
895.087
898.513
902
905.534
909.102
912.693
916.298
919.908
923.517
927.118
930.705
934.274
937.82
941.341
944.836
948.307
951.756
955.18
958.577
961.95
965.313
968.671
972.033
975.406
978.797
982.205
985.62
989.017
992.343
995.57
998.714
1001.76
1004.72
1007.57
1010.33
1012.99
1015.56
1018.02
1020.38
1022.63
1024.79
1026.84
1028.79
1030.63
1032.37
1034
1035.53
1036.95
1038.26
1039.48
1040.58
1041.58
1042.47
1043.25
1043.92
1044.49
1044.95
1045.31
1045.55
1045.7
1045.72
1045.64
1045.44
1045.09
1044.6
1043.97
1043.25
1042.44
1041.53
1040.52
1039.42
1038.23
1036.95
1035.58
1034.1
1032.58
1030.88
1029.23
1027.36
1025.57
1023.56
1021.62
1019.54
1017.43
1015.25
1013.03
1010.76
1008.45
1006.1
1003.71
1001.3
998.862
996.406
993.935
991.455
988.973
986.497
984.039
981.614
979.246
976.973
974.861
973.01
971.565
971.025
971.894
977.916
11463.2
2258.56
1406.73
1164.8
935.033
731.106
566.658
453.869
376.857
323.163
284.741
257.563
237.83
222.869
211.073
201.69
194.383
188.947
185.179
182.966
182.822
183.832
187.19
193.051
202.862
217.252
237.229
260.941
286.271
309.753
325.606
335.849
373.283
436.98
543.494
614.968
672.622
737.185
808.251
878.56
943.276
999.168
1047.25
1076.42
1084.89
1054.57
1012.86
976.355
937.85
901.326
868.644
841.756
818.662
800.268
785.621
774.439
766.04
759.835
755.604
753.043
751.922
751.756
752.269
753.63
755.432
757.69
760.252
763.066
766.064
769.216
772.491
775.861
779.309
782.819
786.38
789.979
793.61
797.265
800.937
804.621
808.31
812
815.686
819.365
823.033
826.685
830.321
833.939
837.538
841.123
844.687
848.226
851.738
855.23
858.699
862.149
865.573
868.972
872.33
875.638
878.882
882.048
885.128
888.123
891.03
893.846
896.57
899.199
901.734
904.172
906.512
908.753
910.894
912.932
914.867
916.698
918.423
920.041
921.552
922.954
924.248
925.433
926.508
927.472
928.325
929.066
929.697
930.215
930.622
930.916
931.1
931.165
931.136
930.98
930.714
930.326
929.816
929.181
928.433
927.586
926.64
925.596
924.456
923.219
921.892
920.474
918.966
917.358
915.682
913.89
912.055
910.102
908.119
906.03
903.904
901.699
899.439
897.121
894.75
892.332
889.868
887.365
884.825
882.254
879.658
877.042
874.409
871.764
869.113
866.465
863.831
861.23
858.686
856.229
853.913
851.82
850.069
849.009
849.144
852.099
11463.2
2834.59
1702.37
1203.21
842.054
596.275
450.143
359.141
302.044
264.899
239.345
220.82
206.825
196.01
187.409
180.471
174.967
170.797
167.883
166.257
166.224
167.104
169.619
174.234
181.231
191.18
205.141
223.481
245.858
274.198
316.522
378.211
479.876
584.207
656.857
716.141
771.85
820.085
859.362
894.529
929.131
947.961
951.068
925.221
895.506
863.916
831.376
802.563
775.438
752.39
732.904
717.047
704.071
693.988
686.35
680.879
677.192
675.221
674.418
674.334
675.208
676.856
679.029
681.652
684.591
687.793
691.191
694.742
698.411
702.176
706.017
709.919
713.873
717.868
721.898
725.958
730.041
734.142
738.256
742.379
746.507
750.634
754.757
758.871
762.973
767.06
771.128
775.176
779.203
783.207
787.186
791.129
795.035
798.902
802.729
806.512
810.247
813.926
817.541
821.08
824.541
827.917
831.205
834.402
837.505
840.513
843.422
846.23
848.936
851.538
854.035
856.425
858.706
860.876
862.931
864.872
866.696
868.402
869.988
871.453
872.796
874.018
875.116
876.091
876.942
877.668
878.271
878.749
879.103
879.331
879.426
879.418
879.284
879.021
878.634
878.123
877.486
876.727
875.851
874.866
873.773
872.574
871.27
869.862
868.355
866.752
865.051
863.25
861.36
859.372
857.306
855.147
852.92
850.61
848.235
845.787
843.275
840.701
838.071
835.389
832.658
829.885
827.073
824.228
821.356
818.462
815.55
812.623
809.689
806.757
803.836
800.944
798.102
795.338
792.697
790.244
788.072
786.423
785.631
786.525
11463.2
3373.81
1766.76
1051.25
663.801
464.867
362.683
305.389
268.856
243.021
223.434
208.207
196.126
186.244
178.057
171.317
165.936
161.859
159.149
157.828
157.989
159.401
162.688
168.16
176.395
188.562
205.657
228.706
263.2
318.078
403.69
511.86
600.122
663.418
715.925
757.971
790.484
817.448
840.173
850.567
850.657
829.79
808.033
782.66
757.617
733.057
710.223
690.409
673.111
658.802
647.064
637.71
630.453
625.154
621.55
619.657
618.957
618.984
620.093
621.905
624.373
627.348
630.713
634.39
638.304
642.405
646.648
651.003
655.445
659.956
664.524
669.137
673.789
678.473
683.185
687.92
692.675
697.443
702.221
707.004
711.786
716.563
721.331
726.085
730.821
735.534
740.222
744.881
749.508
754.103
758.66
763.167
767.622
772.018
776.357
780.631
784.837
788.969
793.024
796.998
800.882
804.669
808.357
811.942
815.422
818.794
822.055
825.204
828.235
831.149
833.939
836.601
839.135
841.541
843.818
845.962
847.972
849.847
851.585
853.184
854.644
855.964
857.144
858.184
859.083
859.842
860.46
860.938
861.276
861.464
861.519
861.454
861.244
860.896
860.41
859.79
859.037
858.153
857.143
856.012
854.762
853.395
851.913
850.317
848.606
846.775
844.835
842.788
840.639
838.388
836.043
833.603
831.08
828.472
825.786
823.022
820.187
817.285
814.321
811.3
808.227
805.108
801.948
798.752
795.527
792.278
789.009
785.725
782.433
779.142
775.862
772.607
769.399
766.262
763.232
760.361
757.72
755.477
753.799
753.117
11463.2
3551.15
1585.77
833.201
523.464
384.678
313.588
271.975
245.188
226.614
212.649
201.156
191.082
182.224
174.58
168.17
163.12
159.622
157.733
157.461
158.591
161.371
166.357
174.323
186.48
205.837
236.019
281.535
353.744
445.527
529.705
593.73
646.41
689.574
723.507
751.038
769.528
776.934
772.488
756.618
739.695
719.432
700.02
680.366
661.689
644.257
628.842
615.719
604.71
595.792
588.759
583.454
579.71
577.572
576.724
576.676
577.667
579.515
582.104
585.284
588.969
593.06
597.475
602.147
607.02
612.051
617.206
622.459
627.788
633.178
638.617
644.096
649.607
655.144
660.705
666.284
671.879
677.482
683.089
688.693
694.29
699.873
705.438
710.979
716.492
721.969
727.411
732.81
738.164
743.47
748.722
753.909
759.022
764.059
769.015
773.887
778.669
783.36
787.958
792.455
796.841
801.113
805.266
809.299
813.209
816.992
820.646
824.168
827.556
830.806
833.917
836.886
839.709
842.385
844.911
847.285
849.506
851.57
853.476
855.223
856.81
858.237
859.503
860.608
861.553
862.339
862.965
863.431
863.736
863.87
863.873
863.722
863.413
862.95
862.337
861.574
860.665
859.614
858.423
857.098
855.641
854.055
852.34
850.501
848.539
846.456
844.255
841.937
839.507
836.967
834.323
831.576
828.735
825.803
822.784
819.68
816.499
813.245
809.924
806.542
803.104
799.617
796.084
792.515
788.914
785.287
781.638
777.974
774.301
770.63
766.969
763.334
759.741
756.215
752.784
749.49
746.385
743.584
741.129
739.133
11463.2
3429.59
1308.45
671.472
446.249
348.16
295.642
262.707
240.914
224.535
211.61
200.882
191.708
183.761
176.966
171.439
167.455
165.099
164.554
166.069
169.76
176.308
187.161
204.104
229.811
271.659
331.264
402.548
470.282
528.983
578.666
620.082
654.436
683.657
704.036
711.821
709.554
697.347
683.945
667.85
652.328
636.766
622.012
607.684
594.328
582.3
571.959
563.346
556.363
550.939
546.963
544.401
543.211
542.951
543.652
545.294
547.778
550.979
554.802
559.149
563.938
569.095
574.552
580.252
586.145
592.193
598.366
604.638
610.99
617.405
623.868
630.368
636.894
643.44
650
656.571
663.155
669.737
676.314
682.877
689.421
695.939
702.425
708.874
715.277
721.627
727.908
734.125
740.283
746.381
752.41
758.359
764.217
769.98
775.642
781.199
786.644
791.975
797.181
802.26
807.208
812.021
816.697
821.231
825.621
829.863
833.957
837.898
841.683
845.31
848.774
852.074
855.206
858.168
860.958
863.571
866.008
868.264
870.339
872.23
873.937
875.46
876.799
877.955
878.928
879.72
880.331
880.761
881.001
881.069
880.978
880.709
880.267
879.655
878.876
877.932
876.827
875.564
874.149
872.584
870.873
869.019
867.024
864.89
862.622
860.221
857.69
855.033
852.252
849.35
846.333
843.204
839.97
836.637
833.207
829.687
826.081
822.397
818.641
814.82
810.94
807.006
803.024
799.002
794.947
790.864
786.759
782.637
778.508
774.381
770.266
766.177
762.129
758.144
754.245
750.467
746.848
743.479
740.368
737.342
11463.2
3026.39
1054.66
565.294
398.455
323.202
282.945
258.069
240.476
227.566
217.193
208.329
200.603
193.995
188.698
185.118
183.695
184.539
187.986
194.777
205.506
222.071
246.938
281.897
327.007
377.264
428.349
476.715
519.756
557.447
589.384
617.213
640.421
651.514
653.119
646.169
636.282
623.621
611.199
598.868
587.254
576.009
565.245
554.992
545.617
537.405
530.52
524.975
520.73
517.728
516.077
515.502
515.778
517.081
519.284
522.305
526.068
530.485
535.477
540.966
546.884
553.166
559.754
566.592
573.633
580.839
588.177
595.623
603.168
610.782
618.441
626.134
633.845
641.56
649.262
656.924
664.544
672.155
679.758
687.343
694.901
702.425
709.911
717.35
724.737
732.064
739.33
746.524
753.63
760.643
767.561
774.366
781.048
787.602
794.023
800.305
806.444
812.435
818.275
823.963
829.495
834.87
840.081
845.127
850.005
854.712
859.246
863.602
867.78
871.773
875.58
879.196
882.619
885.846
888.874
891.702
894.325
896.741
898.95
900.948
902.736
904.313
905.681
906.84
907.793
908.541
909.086
909.422
909.553
909.501
909.253
908.811
908.179
907.359
906.356
905.172
903.811
902.278
900.577
898.712
896.687
894.505
892.169
889.682
887.048
884.269
881.349
878.292
875.1
871.778
868.329
864.759
861.075
857.281
853.383
849.387
845.3
841.131
836.885
832.57
828.193
823.759
819.275
814.748
810.185
805.593
800.978
796.348
791.712
787.08
782.463
777.872
773.322
768.833
764.424
760.124
755.959
752.002
748.234
744.247
11463.2
2552.09
896.492
520.057
383.61
318.778
283.359
262.461
248.593
238.323
230.117
223.337
217.914
214.271
212.873
213.806
218.32
225.904
236.043
250.135
269.955
296.042
327.787
363.457
400.699
437.283
471.969
503.866
531.913
557.043
580.159
594.512
599.047
597.642
592.259
583.727
574.324
564.734
555.699
547.056
538.776
530.729
522.997
515.767
509.305
503.822
499.418
496.121
493.996
493.054
492.939
493.81
495.642
498.377
501.953
506.304
511.359
517.044
523.292
530.035
537.214
544.781
552.686
560.854
569.242
577.808
586.511
595.301
604.099
612.94
621.835
630.772
639.734
648.703
657.661
666.61
675.547
684.454
693.336
702.169
710.942
719.649
728.289
736.854
745.337
753.727
762.011
770.174
778.213
786.129
793.915
801.556
809.043
816.365
823.521
830.503
837.312
843.942
850.394
856.665
862.753
868.655
874.367
879.886
885.208
890.334
895.259
899.981
904.497
908.802
912.893
916.767
920.419
923.848
927.049
930.022
932.763
935.27
937.54
939.572
941.364
942.919
944.236
945.319
946.171
946.793
947.188
947.351
947.3
947.029
946.544
945.848
944.943
943.835
942.526
941.021
939.325
937.442
935.378
933.137
930.722
928.138
925.387
922.475
919.404
916.177
912.799
909.274
905.605
901.797
897.853
893.778
889.581
885.265
880.838
876.308
871.684
866.972
862.182
857.32
852.393
847.407
842.369
837.285
832.165
827.013
821.84
816.653
811.464
806.281
801.116
795.979
790.886
785.851
780.893
776.034
771.296
766.736
762.332
757.469
11463.2
2114.77
781.547
479.544
369.08
316.924
289.198
272.689
261.888
254.249
248.651
244.84
243.144
243.136
246.376
252.857
262.386
274.4
289.562
308.259
330.29
354.976
381.373
408.351
434.885
460.191
483.377
504.941
525.431
541.099
548.311
550.064
549.372
545.306
539.528
532.938
526.331
519.937
513.824
507.877
502.047
496.366
490.967
486.063
481.862
478.529
476.139
474.909
474.575
475.156
476.705
479.195
482.585
486.839
491.927
497.813
504.384
511.576
519.329
527.576
536.24
545.214
554.416
563.904
573.656
583.634
593.798
604.117
614.588
625.154
635.762
646.382
657.004
667.587
678.101
688.534
698.878
709.12
719.245
729.269
739.195
749.025
758.76
768.4
777.935
787.35
796.627
805.749
814.707
823.497
832.117
840.552
848.787
856.818
864.639
872.25
879.646
886.829
893.8
900.558
907.102
913.428
919.534
925.416
931.074
936.505
941.708
946.681
951.42
955.922
960.182
964.196
967.961
971.474
974.733
977.734
980.475
982.955
985.169
987.117
988.797
990.211
991.36
992.248
992.881
993.258
993.389
993.268
992.907
992.306
991.472
990.409
989.121
987.614
985.893
983.963
981.83
979.498
976.973
974.259
971.362
968.285
965.032
961.607
958.015
954.259
950.343
946.272
942.05
937.683
933.173
928.526
923.749
918.846
913.828
908.705
903.485
898.176
892.787
887.325
881.797
876.208
870.566
864.877
859.149
853.391
847.613
841.826
836.039
830.265
824.511
818.789
813.112
807.494
801.95
796.5
791.163
785.985
780.958
775.277
11463.2
1958.25
765.629
477.248
371.919
324.709
300.467
286.774
278.465
273.277
270.565
269.664
270.583
274.292
280.737
289.74
301.072
314.636
330.256
347.563
366.319
385.942
405.765
425.044
443.292
460.922
478.194
492.672
501.768
505.993
507.408
507.336
505.361
502.084
498.214
494.138
490.069
486.053
482.069
478.115
474.227
470.528
467.176
464.361
462.249
461.125
460.822
461.475
463.222
465.903
469.482
473.941
479.251
485.353
492.148
499.471
507.479
516.158
525.457
535.311
545.663
556.469
567.7
579.264
591.113
603.201
615.486
627.916
640.471
653.081
665.654
678.126
690.435
702.564
714.506
726.258
737.823
749.212
760.441
771.526
782.473
793.293
804
814.598
825.077
835.416
845.585
855.559
865.317
874.86
884.179
893.261
902.09
910.667
918.984
927.045
934.846
942.393
949.688
956.735
963.533
970.081
976.377
982.417
988.204
993.736
999.013
1004.03
1008.8
1013.3
1017.53
1021.49
1025.18
1028.59
1031.73
1034.57
1037.14
1039.41
1041.4
1043.09
1044.49
1045.6
1046.41
1046.94
1047.2
1047.17
1046.88
1046.32
1045.5
1044.41
1043.08
1041.51
1039.7
1037.65
1035.39
1032.9
1030.21
1027.3
1024.2
1020.89
1017.4
1013.72
1009.86
1005.82
1001.61
997.23
992.685
987.98
983.12
978.112
972.958
967.666
962.238
956.68
951.007
945.23
939.357
933.396
927.355
921.24
915.059
908.818
902.524
896.183
889.802
883.393
876.968
870.54
864.119
857.715
851.336
844.994
838.698
832.462
826.3
820.233
814.273
808.461
802.818
796.364
11463.2
1865.46
736.104
472.701
377.96
335.309
313.977
302.452
295.961
292.753
291.682
292.337
295.586
301.029
308.523
317.796
328.616
340.742
353.954
367.946
382.346
396.717
410.789
424.752
438.624
450.683
459.286
465.201
469.077
471.054
471.779
471.829
470.906
469.421
467.638
465.699
463.668
461.591
459.508
457.512
455.735
454.431
453.782
453.655
454.277
455.808
458.151
461.257
464.905
469.403
474.85
481.252
488.587
496.812
505.897
515.852
526.576
538.027
550.129
562.8
575.969
589.575
603.56
617.831
632.322
646.999
661.809
676.622
691.325
705.842
720.132
734.143
747.828
761.161
774.129
786.753
799.056
811.091
822.933
834.62
846.144
857.532
868.824
880.035
891.143
902.104
912.871
923.407
933.675
943.674
953.399
962.817
971.923
980.723
989.216
997.399
1005.27
1012.85
1020.13
1027.12
1033.83
1040.25
1046.39
1052.25
1057.83
1063.13
1068.15
1072.9
1077.37
1081.57
1085.47
1089.09
1092.42
1095.45
1098.18
1100.61
1102.74
1104.56
1106.08
1107.28
1108.16
1108.75
1109.02
1108.98
1108.66
1108.03
1107.12
1105.91
1104.43
1102.67
1100.65
1098.39
1095.88
1093.13
1090.16
1086.96
1083.55
1079.92
1076.1
1072.07
1067.85
1063.44
1058.85
1054.08
1049.13
1044.02
1038.74
1033.3
1027.71
1021.97
1016.09
1010.07
1003.92
997.635
991.244
984.755
978.173
971.505
964.758
957.939
951.055
944.114
937.122
930.085
923.007
915.908
908.802
901.7
894.611
887.545
880.51
873.516
866.571
859.688
852.883
846.174
839.576
833.117
826.86
819.672
11463.2
1847.03
735.423
478.93
388.398
348.251
328.378
317.708
311.967
309.405
308.765
310.197
314.04
319.627
326.64
334.767
343.829
353.606
363.912
374.496
385.096
395.906
406.532
415.729
423.229
429.356
434.556
438.64
441.796
444.179
446.03
447.504
448.658
449.665
450.456
451.097
451.646
452.182
452.771
453.5
454.406
455.429
456.803
458.911
462.025
466.379
471.769
478.182
485.708
494.275
503.891
514.547
526.219
538.823
552.303
566.608
581.647
597.433
613.766
630.491
647.498
664.699
682.005
699.33
716.582
733.657
750.454
766.943
783.036
798.646
813.728
828.239
842.163
855.5
868.222
880.431
892.186
903.589
914.904
926.197
937.341
948.388
959.468
970.604
981.71
992.69
1003.49
1014
1024.23
1034.13
1043.72
1052.99
1061.95
1070.57
1078.84
1086.74
1094.27
1101.45
1108.27
1114.77
1120.93
1126.78
1132.3
1137.51
1142.4
1147
1151.31
1155.32
1159.05
1162.49
1165.64
1168.5
1171.06
1173.31
1175.27
1176.91
1178.24
1179.27
1179.98
1180.37
1180.41
1180.18
1179.62
1178.73
1177.54
1176.03
1174.22
1172.12
1169.73
1167.06
1164.13
1160.94
1157.51
1153.84
1149.94
1145.83
1141.49
1136.95
1132.21
1127.27
1122.14
1116.82
1111.33
1105.66
1099.83
1093.83
1087.67
1081.36
1074.9
1068.31
1061.58
1054.72
1047.75
1040.68
1033.52
1026.26
1018.91
1011.48
1003.98
996.406
988.771
981.082
973.35
965.577
957.769
949.951
942.136
934.332
926.549
918.795
911.077
903.406
895.789
888.236
880.768
873.405
866.157
859.042
852.176
844.291
11463.7
1822.79
734.342
486.88
398.748
359.77
340.791
330.293
324.405
321.775
321.089
322.378
325.794
330.606
336.453
343.057
350.304
358.065
366.274
374.691
382.733
390.382
397.497
404.403
410.836
416.835
422.495
427.777
432.737
437.365
441.662
445.58
449.01
451.871
454.607
457.341
460.158
463.168
466.467
470.193
474.468
479.543
485.576
492.775
501.421
511.745
523.254
535.964
549.873
564.898
580.988
598.15
616.379
635.365
654.914
674.856
695.02
715.167
735.25
755.185
774.905
794.336
813.429
832.134
850.41
868.214
885.516
902.274
918.427
933.801
948.455
962.39
975.675
988.362
1000.51
1012.13
1023.21
1033.79
1043.96
1053.76
1063.26
1072.7
1082.57
1092.81
1103.14
1113.4
1123.45
1133.24
1142.68
1151.76
1160.5
1168.94
1177.07
1184.82
1192.17
1199.09
1205.59
1211.65
1217.32
1222.59
1227.5
1232.05
1236.25
1240.1
1243.62
1246.83
1249.75
1252.38
1254.73
1256.81
1258.59
1260.11
1261.35
1262.3
1262.96
1263.32
1263.37
1263.16
1262.64
1261.79
1260.62
1259.15
1257.37
1255.28
1252.88
1250.18
1247.19
1243.92
1240.37
1236.55
1232.47
1228.15
1223.58
1218.79
1213.78
1208.55
1203.12
1197.49
1191.67
1185.67
1179.49
1173.14
1166.62
1159.94
1153.1
1146.11
1138.97
1131.7
1124.29
1116.75
1109.09
1101.31
1093.43
1085.48
1077.44
1069.32
1061.11
1052.82
1044.46
1036.04
1027.56
1019.04
1010.48
1001.91
993.337
984.77
976.215
967.678
959.167
950.69
942.256
933.876
925.558
917.312
909.163
901.13
893.22
885.44
877.959
869.412
11462.8
1809.32
737.246
492.922
406.23
367.966
349.386
338.784
332.797
330.11
329.374
330.525
333.609
338.008
343.501
349.747
356.614
363.881
371.441
379.156
387.222
395.209
403.009
410.746
418.374
425.916
433.423
440.888
448.353
455.752
463.051
470.28
477.546
485.023
492.701
500.688
509.092
518.054
527.711
538.246
549.827
562.668
576.848
592.437
609.384
627.421
646.755
667.417
689.246
712.083
735.75
760.148
784.772
809.418
833.845
857.841
881.212
903.776
925.427
946.091
965.757
984.478
1002.29
1019.26
1035.37
1050.74
1065.39
1079.4
1092.81
1105.7
1118.09
1129.74
1140.89
1151.71
1162.26
1172.49
1182.24
1191.5
1200.12
1208.13
1215.83
1223.57
1231.81
1240.34
1248.88
1257.28
1265.48
1273.39
1280.96
1288.14
1294.92
1301.37
1307.44
1313.12
1318.36
1323.15
1327.48
1331.37
1334.86
1337.95
1340.68
1343.09
1345.15
1346.89
1348.33
1349.49
1350.41
1351.08
1351.53
1351.73
1351.67
1351.43
1350.95
1350.2
1349.21
1347.97
1346.47
1344.72
1342.7
1340.39
1337.8
1334.94
1331.79
1328.37
1324.67
1320.71
1316.49
1312.02
1307.3
1302.33
1297.14
1291.72
1286.08
1280.23
1274.19
1267.96
1261.55
1254.96
1248.19
1241.26
1234.17
1226.93
1219.53
1211.99
1204.3
1196.48
1188.52
1180.44
1172.23
1163.9
1155.45
1146.9
1138.23
1129.47
1120.63
1111.69
1102.67
1093.58
1084.41
1075.19
1065.92
1056.6
1047.26
1037.9
1028.57
1019.24
1009.93
1000.64
991.383
982.163
972.994
963.889
954.865
945.947
937.14
928.458
919.908
911.486
903.406
894.265
11461.8
1799.44
740.469
495.702
411.234
373.982
356.311
346.282
341.28
339.474
339.401
341.752
345.823
351.223
357.641
365.283
374.111
383.06
392.483
402.64
413.745
425.342
437.146
449.407
462.168
475.409
489.115
503.226
517.699
532.492
547.689
563.318
579.437
596.082
613.186
630.787
648.97
667.883
687.699
708.682
731.052
754.83
779.996
806.448
834.004
862.528
892.267
923.349
954.966
986.675
1017.99
1048.26
1077.19
1104.59
1130.27
1154.03
1175.81
1195.56
1213.29
1229.06
1242.86
1255.29
1266.26
1276.07
1284.71
1292.35
1299.25
1305.5
1311.35
1317.08
1322.75
1328.38
1334.03
1339.67
1345.28
1350.8
1356
1360.99
1365.94
1370.87
1375.97
1381.74
1387.54
1393.1
1398.43
1403.56
1408.5
1413.23
1417.71
1421.83
1425.49
1428.89
1431.92
1434.58
1436.84
1438.69
1440.14
1441.21
1441.93
1442.33
1442.39
1442.22
1441.77
1441.07
1440.14
1439.03
1437.74
1436.28
1434.67
1432.89
1430.92
1428.81
1426.52
1424.05
1421.39
1418.53
1415.48
1412.21
1408.73
1405.03
1401.09
1396.91
1392.51