/*--------------------------------*- C++ -*----------------------------------*\
  =========                 |
  \\      /  F ield         | OpenFOAM: The Open Source CFD Toolbox
   \\    /   O peration     | Website:  https://openfoam.org
    \\  /    A nd           | Version:  13
     \\/     M anipulation  |
\*---------------------------------------------------------------------------*/
FoamFile
{
    format      ascii;
    class       volScalarField;
    location    "1700";
    object      p;
}
// * * * * * * * * * * * * * * * * * * * * * * * * * * * * * * * * * * * * * //

dimensions      [0 2 -2 0 0 0 0];

internalField   nonuniform List<scalar> 
12225
(
-4.21341
-5.05867
-5.47054
-5.62236
-5.75194
-5.91277
-6.08722
-6.18244
-6.20683
-6.27204
-6.36372
-6.46253
-6.56283
-6.65478
-6.73821
-6.81528
-6.89077
-6.98264
-4.48631
-5.09751
-5.44667
-5.60133
-5.72565
-5.88133
-6.03498
-6.12934
-6.18621
-6.25432
-6.3474
-6.44799
-6.54129
-6.62561
-6.70412
-6.77944
-6.85233
-6.90134
-4.66491
-5.09306
-5.42373
-5.60388
-5.74037
-5.89363
-6.02826
-6.12497
-6.20075
-6.27407
-6.36311
-6.45598
-6.54072
-6.61807
-6.69075
-6.75902
-6.81903
-6.8545
-4.80266
-5.11886
-5.44466
-5.607
-5.74411
-5.88627
-6.01205
-6.10979
-6.18904
-6.26632
-6.35293
-6.44085
-6.52206
-6.59659
-6.66592
-6.7293
-6.78311
-6.81781
-4.92952
-5.17398
-5.44944
-5.61057
-5.74453
-5.87788
-5.99942
-6.09873
-6.18303
-6.26425
-6.34926
-6.43359
-6.51192
-6.58369
-6.64964
-6.70877
-6.7586
-6.79401
-5.04338
-5.22803
-5.45992
-5.62232
-5.75198
-5.87781
-5.99509
-6.09473
-6.18142
-6.26304
-6.34496
-6.42526
-6.50024
-6.56899
-6.63159
-6.68717
-6.73411
-6.76967
-5.14486
-5.28344
-5.48154
-5.6376
-5.76201
-5.88117
-5.99361
-6.09237
-6.17925
-6.26001
-6.33929
-6.41632
-6.4884
-6.55441
-6.61409
-6.66676
-6.71148
-6.74696
-5.23577
-5.33947
-5.50874
-5.65519
-5.77441
-5.88703
-5.99426
-6.09065
-6.17632
-6.2557
-6.33251
-6.40642
-6.47544
-6.53855
-6.59542
-6.64557
-6.6886
-6.7239
-5.31767
-5.39603
-5.53944
-5.67451
-5.788
-5.89426
-5.99614
-6.0893
-6.17317
-6.25093
-6.32535
-6.39631
-6.46245
-6.52291
-6.57742
-6.6257
-6.66763
-6.70299
-5.39071
-5.45159
-5.57217
-5.69489
-5.80187
-5.90195
-5.99835
-6.08785
-6.16952
-6.24542
-6.31746
-6.38566
-6.4491
-6.50719
-6.55965
-6.60634
-6.64733
-6.6825
-5.4563
-5.50457
-5.60533
-5.71547
-5.81547
-5.90954
-6.00051
-6.08616
-6.16531
-6.23908
-6.30872
-6.37432
-6.43529
-6.49119
-6.54183
-6.58712
-6.62721
-6.66212
-5.51079
-5.5503
-5.63572
-5.73463
-5.82797
-5.91661
-6.00271
-6.08466
-6.16118
-6.23273
-6.30012
-6.36342
-6.42224
-6.47628
-6.52537
-6.56951
-6.60887
-6.64344
-5.55994
-5.59282
-5.66536
-5.75375
-5.84046
-5.92383
-6.00519
-6.08337
-6.15706
-6.22624
-6.29136
-6.35242
-6.40922
-6.46148
-6.50914
-6.55219
-6.59084
-6.62506
-5.61014
-5.63732
-5.69793
-5.77542
-5.85467
-5.93216
-6.00829
-6.08215
-6.15247
-6.21883
-6.28133
-6.33995
-6.39452
-6.44489
-6.49099
-6.53286
-6.57069
-6.60448
-5.65951
-5.68181
-5.73196
-5.79884
-5.87011
-5.94133
-6.01191
-6.08106
-6.14754
-6.21068
-6.27028
-6.32626
-6.37846
-6.42681
-6.47125
-6.51184
-6.54875
-6.582
-5.70515
-5.72348
-5.765
-5.82231
-5.8857
-5.95054
-6.01557
-6.07984
-6.14223
-6.20187
-6.25841
-6.31162
-6.36143
-6.40767
-6.45042
-6.48965
-6.52558
-6.55819
-5.74308
-5.75837
-5.79333
-5.84284
-5.89925
-5.95822
-6.01807
-6.07775
-6.13612
-6.19231
-6.2458
-6.29635
-6.34379
-6.38804
-6.42909
-6.467
-6.5019
-6.53385
-5.76729
-5.78064
-5.8114
-5.85568
-5.9071
-5.96162
-6.01745
-6.07345
-6.12851
-6.18178
-6.23267
-6.2809
-6.32629
-6.36878
-6.40833
-6.44503
-6.47896
-6.51026
-5.76831
-5.7811
-5.81075
-5.85356
-5.90333
-5.95613
-6.01021
-6.06448
-6.11785
-6.16948
-6.2188
-6.26556
-6.3096
-6.35088
-6.38938
-6.42519
-6.45842
-6.48922
-5.73767
-5.7522
-5.78543
-5.83233
-5.88541
-5.94062
-5.99651
-6.05219
-6.1065
-6.15864
-6.20813
-6.25485
-6.29866
-6.33964
-6.37778
-6.41328
-6.44621
-6.47681
-5.6925
-5.71016
-5.75003
-5.80429
-5.8632
-5.92275
-5.98226
-6.0409
-6.09747
-6.15114
-6.2017
-6.24906
-6.29326
-6.33433
-6.37246
-6.40781
-6.44063
-6.4711
-5.63385
-5.6569
-5.70742
-5.77231
-5.83879
-5.90393
-5.9683
-6.03102
-6.09058
-6.14632
-6.19829
-6.24665
-6.29147
-6.33286
-6.37106
-6.40637
-6.43906
-6.46943
-5.56383
-5.59554
-5.66167
-5.73977
-5.81441
-5.88574
-5.95581
-6.02318
-6.08608
-6.14413
-6.19768
-6.24707
-6.29244
-6.3341
-6.37237
-6.40764
-6.44019
-6.47036
-5.48318
-5.52888
-5.61667
-5.70921
-5.79135
-5.86925
-5.94569
-6.01778
-6.08382
-6.14418
-6.19945
-6.24986
-6.29566
-6.33735
-6.37553
-6.41071
-6.44316
-6.47322
-5.39179
-5.4596
-5.5761
-5.68238
-5.77012
-5.85463
-5.93799
-6.0148
-6.08353
-6.14582
-6.20273
-6.25419
-6.30027
-6.34171
-6.37944
-6.41415
-6.4462
-6.47593
-5.28963
-5.39007
-5.54156
-5.65945
-5.75107
-5.84174
-5.93151
-6.01283
-6.08414
-6.14821
-6.20664
-6.25925
-6.30591
-6.3474
-6.38482
-6.41904
-6.45061
-6.48023
-5.17793
-5.32552
-5.5108
-5.63587
-5.73269
-5.83113
-5.92639
-6.01096
-6.0844
-6.14994
-6.20922
-6.26221
-6.30901
-6.35041
-6.38752
-6.42114
-6.45192
-6.48102
-5.04751
-5.28262
-5.49109
-5.60991
-5.71156
-5.8214
-5.92477
-6.01373
-6.09086
-6.15947
-6.22047
-6.27407
-6.32097
-6.36211
-6.39876
-6.43172
-6.46164
-6.49055
-4.84949
-5.2553
-5.49573
-5.59698
-5.69432
-5.809
-5.91641
-6.00733
-6.08675
-6.15791
-6.22072
-6.27534
-6.32286
-6.36419
-6.40007
-6.43152
-6.45991
-6.48621
-4.58481
-5.18629
-5.49269
-5.60491
-5.71012
-5.83244
-5.94416
-6.03694
-6.11715
-6.1886
-6.25119
-6.3052
-6.3519
-6.39206
-6.42518
-6.45236
-6.4765
-6.49644
-7.42243
-7.42254
-7.42259
-7.42257
-7.42232
-7.42124
-7.41886
-7.41555
-7.41227
-7.40995
-7.40962
-7.4116
-7.41547
-7.4205
-7.42596
-7.43113
-7.43549
-7.43858
-7.44027
-7.44081
-7.44052
-7.43963
-7.43839
-7.43711
-7.43607
-7.43544
-7.43522
-7.43521
-7.43515
-7.4349
-7.43445
-7.43386
-7.43315
-7.43223
-7.43099
-7.42963
-7.42857
-7.42859
-7.43033
-7.43368
-7.43776
-7.44155
-7.44451
-7.44681
-7.4489
-7.45125
-7.45433
-7.45787
-7.46105
-7.46358
-7.46731
-7.47572
-7.49274
-7.51841
-7.55162
-7.5919
-7.63982
-7.69496
-7.7563
-7.82232
-7.89094
-7.95984
-8.02773
-8.09375
-8.15703
-8.21659
-8.27209
-8.32343
-8.37056
-8.41357
-8.45253
-8.48758
-8.51874
-8.54616
-8.56979
-8.58973
-8.60581
-8.61806
-8.62628
-8.63048
-8.63041
-8.62605
-8.61714
-8.60368
-8.58537
-8.56219
-8.53385
-8.50034
-8.4615
-8.41739
-8.368
-8.31323
-8.25288
-8.18685
-8.11505
-8.03743
-7.95395
-7.86463
-7.76951
-7.66873
-7.56228
-7.44986
-7.33127
-7.20674
-7.07643
-6.94039
-6.79872
-6.65142
-6.49856
-6.34016
-6.17629
-6.00698
-5.83233
-5.6524
-5.46731
-5.27718
-5.08215
-4.88235
-4.67793
-4.469
-4.25572
-4.03827
-3.81689
-3.59178
-3.36318
-3.13127
-2.89627
-2.65835
-2.41774
-2.17463
-1.92923
-1.68175
-1.43239
-1.18137
-0.928882
-0.675163
-0.42045
-0.164937
0.0914637
0.348711
0.606486
0.864536
1.12265
1.38065
1.63835
1.89558
2.15215
2.40789
2.66263
2.91621
3.16845
3.41919
3.66825
3.91546
4.16066
4.40369
4.64439
4.88262
5.11824
5.35114
5.58119
5.8083
6.03235
6.25326
6.47092
6.68523
6.89609
7.10341
7.30708
7.50701
7.70312
7.8953
8.08348
8.26756
8.44746
8.62313
8.79469
8.9621
9.12843
9.28469
-7.42359
-7.42377
-7.42413
-7.42453
-7.42457
-7.42382
-7.42197
-7.41944
-7.41744
-7.41697
-7.41837
-7.42157
-7.42609
-7.43132
-7.43665
-7.44156
-7.44567
-7.44876
-7.45063
-7.45109
-7.45016
-7.44811
-7.44537
-7.44241
-7.43969
-7.43756
-7.43614
-7.43529
-7.4347
-7.43416
-7.43369
-7.43333
-7.43297
-7.43247
-7.43171
-7.43083
-7.43044
-7.43142
-7.43412
-7.43803
-7.44197
-7.44484
-7.44637
-7.44703
-7.44694
-7.44626
-7.44637
-7.44966
-7.4562
-7.46248
-7.46905
-7.4794
-7.49459
-7.51584
-7.54612
-7.58739
-7.63898
-7.69877
-7.76462
-7.83374
-7.90379
-7.97349
-8.04175
-8.10703
-8.16814
-8.22506
-8.27797
-8.32682
-8.37175
-8.41285
-8.45023
-8.48398
-8.51414
-8.54077
-8.56386
-8.5834
-8.59926
-8.61141
-8.61969
-8.62402
-8.62419
-8.62013
-8.61161
-8.59857
-8.58076
-8.55809
-8.53036
-8.49744
-8.45926
-8.41581
-8.36714
-8.31307
-8.25349
-8.18825
-8.11729
-8.04053
-7.95793
-7.86943
-7.775
-7.67456
-7.56803
-7.45564
-7.3376
-7.21387
-7.08443
-6.94932
-6.80856
-6.66221
-6.51028
-6.35283
-6.18988
-6.02151
-5.84778
-5.66876
-5.48457
-5.29531
-5.10112
-4.90215
-4.69853
-4.49038
-4.27784
-4.06112
-3.84042
-3.61599
-3.38802
-3.15671
-2.92228
-2.68491
-2.44482
-2.20219
-1.95725
-1.71018
-1.4612
-1.21049
-0.958231
-0.704596
-0.44972
-0.19377
0.0628725
0.319995
0.577576
0.835439
1.09339
1.35125
1.60883
1.86597
2.12247
2.37818
2.63291
2.88651
3.13879
3.38959
3.63875
3.88609
4.13145
4.37465
4.61556
4.85401
5.08988
5.32303
5.55336
5.78075
6.0051
6.22631
6.44429
6.65893
6.87014
7.07781
7.28185
7.48217
7.67869
7.87131
8.05996
8.2446
8.4252
8.60168
8.77434
8.94242
9.11108
9.26687
-7.42486
-7.42486
-7.42492
-7.42501
-7.4251
-7.42507
-7.42511
-7.42575
-7.42748
-7.43049
-7.43465
-7.43961
-7.44498
-7.45033
-7.45529
-7.45955
-7.4629
-7.4652
-7.46639
-7.46638
-7.46517
-7.46287
-7.45965
-7.45573
-7.45135
-7.4468
-7.44238
-7.43835
-7.43491
-7.43221
-7.43024
-7.42883
-7.42765
-7.42647
-7.42547
-7.42522
-7.4265
-7.42989
-7.43489
-7.4399
-7.44313
-7.44359
-7.4422
-7.44096
-7.44119
-7.44217
-7.44379
-7.44875
-7.45839
-7.47195
-7.49001
-7.51345
-7.54235
-7.57695
-7.61781
-7.66498
-7.71768
-7.77461
-7.83433
-7.89526
-7.95619
-8.01632
-8.07505
-8.13165
-8.18553
-8.23643
-8.28427
-8.32896
-8.37051
-8.40889
-8.44412
-8.47618
-8.50506
-8.53073
-8.55313
-8.5722
-8.58781
-8.59986
-8.60819
-8.61269
-8.61316
-8.60947
-8.60144
-8.58892
-8.57172
-8.54968
-8.52263
-8.49043
-8.45298
-8.41029
-8.36234
-8.30901
-8.25017
-8.18568
-8.11549
-8.03952
-7.95774
-7.8701
-7.77659
-7.67714
-7.57172
-7.46044
-7.34344
-7.22076
-7.0924
-6.9584
-6.81877
-6.67356
-6.52279
-6.36651
-6.20473
-6.03754
-5.86497
-5.68712
-5.50407
-5.31595
-5.12287
-4.92499
-4.72241
-4.51528
-4.30374
-4.08799
-3.86824
-3.64472
-3.41762
-3.18717
-2.95353
-2.71694
-2.47759
-2.23568
-1.99141
-1.74499
-1.49663
-1.2465
-0.994829
-0.741777
-0.487496
-0.232145
0.0239879
0.280696
0.537879
0.795361
1.05296
1.3105
1.56779
1.82467
2.08096
2.33647
2.59106
2.84453
3.09672
3.34746
3.5966
3.84394
4.08934
4.33262
4.57362
4.8122
5.04821
5.28153
5.51203
5.7396
5.96414
6.18554
6.40371
6.61855
6.82995
7.03782
7.24207
7.4426
7.63933
7.83217
8.02107
8.20592
8.38672
8.56349
8.73677
8.90525
9.07662
9.22816
-7.42591
-7.42566
-7.42532
-7.42528
-7.42624
-7.42864
-7.43237
-7.43712
-7.44254
-7.44833
-7.45422
-7.45997
-7.46538
-7.47024
-7.4744
-7.4777
-7.48004
-7.48134
-7.48156
-7.48069
-7.47871
-7.47569
-7.47172
-7.46689
-7.46131
-7.4551
-7.44842
-7.44153
-7.43472
-7.42835
-7.42273
-7.41802
-7.41432
-7.41186
-7.41116
-7.41304
-7.41761
-7.42373
-7.42948
-7.43337
-7.43503
-7.43515
-7.43522
-7.43665
-7.44014
-7.44616
-7.45545
-7.46893
-7.48729
-7.51062
-7.53866
-7.57096
-7.60721
-7.64703
-7.69017
-7.73632
-7.78519
-7.83626
-7.88887
-7.94224
-7.99569
-8.04859
-8.10045
-8.15079
-8.19922
-8.24549
-8.28941
-8.33086
-8.36972
-8.40595
-8.43945
-8.47019
-8.49807
-8.52302
-8.54494
-8.56373
-8.57925
-8.59135
-8.59987
-8.60467
-8.60555
-8.60235
-8.59488
-8.58298
-8.56645
-8.54512
-8.51882
-8.48738
-8.45069
-8.40876
-8.36157
-8.30898
-8.25085
-8.18708
-8.1176
-8.04237
-7.96132
-7.87443
-7.78167
-7.68302
-7.57849
-7.46817
-7.35213
-7.23041
-7.10305
-6.97006
-6.83148
-6.68732
-6.53762
-6.38241
-6.22173
-6.05562
-5.88415
-5.70738
-5.5254
-5.33834
-5.1463
-4.94942
-4.74782
-4.54164
-4.33103
-4.11619
-3.89732
-3.67466
-3.44839
-3.21872
-2.98585
-2.74999
-2.51134
-2.27011
-2.02649
-1.7807
-1.53293
-1.28338
-1.03226
-0.779736
-0.525978
-0.27117
-0.0155331
0.240749
0.497531
0.754631
1.01188
1.26909
1.52609
1.78271
2.03876
2.29409
2.54851
2.80185
3.05394
3.30462
3.55371
3.80106
4.04648
4.28981
4.53089
4.76957
5.00571
5.23917
5.46982
5.69755
5.92226
6.14384
6.36219
6.5772
6.78878
6.99683
7.20124
7.40193
7.59882
7.79182
7.98088
8.16594
8.347
8.52404
8.69769
8.8661
9.03826
9.1835
-7.42801
-7.42747
-7.42706
-7.4282
-7.43199
-7.43792
-7.44496
-7.45236
-7.45965
-7.46653
-7.47285
-7.47854
-7.48355
-7.48779
-7.4912
-7.49368
-7.49518
-7.49562
-7.49498
-7.49324
-7.4904
-7.48649
-7.48155
-7.47564
-7.46883
-7.46119
-7.45278
-7.44376
-7.43434
-7.42489
-7.41595
-7.40814
-7.40224
-7.39923
-7.39992
-7.40392
-7.40943
-7.41498
-7.41975
-7.42346
-7.42654
-7.42986
-7.43454
-7.4416
-7.45203
-7.4666
-7.48548
-7.50821
-7.53435
-7.56369
-7.59591
-7.63075
-7.6681
-7.70779
-7.74967
-7.79353
-7.83907
-7.88593
-7.93367
-7.98179
-8.02987
-8.07748
-8.12425
-8.16984
-8.21397
-8.25644
-8.29705
-8.33567
-8.37218
-8.40647
-8.43843
-8.46795
-8.49492
-8.51923
-8.54073
-8.55928
-8.57474
-8.58692
-8.59565
-8.60076
-8.60204
-8.59931
-8.59238
-8.58106
-8.56515
-8.54447
-8.51882
-8.48804
-8.45199
-8.41073
-8.36413
-8.31214
-8.25456
-8.19135
-8.1224
-8.04772
-7.96722
-7.8809
-7.78872
-7.6907
-7.58685
-7.47724
-7.36195
-7.24099
-7.11441
-6.98223
-6.84448
-6.70116
-6.55232
-6.39798
-6.23817
-6.07293
-5.90234
-5.72643
-5.54532
-5.35909
-5.16788
-4.9718
-4.77097
-4.56553
-4.35565
-4.14151
-3.92335
-3.70135
-3.47573
-3.24668
-3.01441
-2.77913
-2.54104
-2.30035
-2.05726
-1.81197
-1.56469
-1.31562
-1.06495
-0.812859
-0.559518
-0.305126
-0.0498847
0.206033
0.46246
0.719228
0.97616
1.23309
1.48983
1.74621
2.00206
2.25721
2.51149
2.76471
3.01671
3.26733
3.51639
3.76373
4.00917
4.25254
4.4937
4.73246
4.9687
5.20228
5.43307
5.66095
5.88581
6.10755
6.32606
6.54123
6.75298
6.96119
7.16578
7.36664
7.56371
7.75689
7.94613
8.13137
8.31263
8.48978
8.66346
8.83126
9.00306
9.14141
-7.432
-7.43113
-7.43146
-7.43546
-7.44252
-7.45078
-7.45924
-7.46738
-7.47491
-7.48175
-7.48788
-7.49329
-7.49792
-7.50171
-7.50459
-7.50649
-7.50735
-7.50714
-7.50584
-7.50342
-7.49988
-7.49526
-7.48957
-7.48283
-7.47503
-7.46622
-7.4565
-7.44603
-7.43501
-7.42388
-7.41338
-7.40446
-7.39838
-7.39603
-7.39698
-7.3998
-7.40336
-7.40749
-7.41244
-7.41844
-7.42548
-7.43398
-7.44515
-7.45993
-7.47846
-7.50043
-7.52543
-7.55312
-7.58314
-7.61526
-7.64929
-7.68507
-7.72251
-7.76145
-7.8018
-7.84335
-7.88591
-7.92919
-7.97293
-8.01682
-8.06057
-8.1039
-8.14656
-8.18831
-8.22895
-8.26828
-8.30615
-8.34242
-8.37695
-8.40962
-8.44028
-8.4688
-8.49505
-8.51885
-8.54007
-8.55852
-8.57402
-8.58638
-8.5954
-8.60088
-8.60261
-8.60038
-8.59399
-8.58324
-8.56792
-8.54782
-8.52275
-8.49251
-8.45705
-8.41624
-8.37015
-8.31857
-8.26139
-8.19852
-8.12992
-8.05555
-7.97538
-7.88939
-7.79757
-7.69993
-7.59652
-7.48738
-7.37258
-7.25215
-7.12613
-6.99454
-6.85739
-6.7147
-6.56649
-6.41279
-6.25363
-6.08904
-5.91909
-5.74383
-5.56334
-5.37774
-5.18712
-4.9916
-4.79131
-4.5864
-4.37703
-4.1634
-3.94572
-3.7242
-3.49903
-3.27041
-3.03857
-2.80371
-2.56603
-2.32573
-2.08303
-1.83812
-1.59122
-1.34251
-1.0922
-0.840447
-0.587444
-0.333388
-0.0784716
0.177133
0.433257
0.689735
0.946395
1.20307
1.45957
1.71574
1.97141
2.2264
2.48053
2.73364
2.98555
3.23611
3.48513
3.73245
3.97789
4.22129
4.46248
4.7013
4.93761
5.17127
5.40215
5.63014
5.85511
6.07697
6.29561
6.51092
6.7228
6.93115
7.13587
7.33687
7.53407
7.72739
7.91675
8.10209
8.2834
8.46046
8.6339
8.80079
8.97198
9.10354
-7.4372
-7.43665
-7.43896
-7.44576
-7.4544
-7.46311
-7.47145
-7.47926
-7.48649
-7.49308
-7.499
-7.50417
-7.50853
-7.512
-7.51451
-7.516
-7.51644
-7.51578
-7.51402
-7.51113
-7.50714
-7.50205
-7.49585
-7.48846
-7.4799
-7.4703
-7.45985
-7.44875
-7.43731
-7.4261
-7.416
-7.40817
-7.4033
-7.40086
-7.39999
-7.40062
-7.40297
-7.40751
-7.41414
-7.42282
-7.43417
-7.44873
-7.46654
-7.48738
-7.51101
-7.53712
-7.56537
-7.5955
-7.62733
-7.6607
-7.69543
-7.73137
-7.7684
-7.80637
-7.84519
-7.8847
-7.92476
-7.96519
-8.00581
-8.04643
-8.08687
-8.12693
-8.16645
-8.20523
-8.24313
-8.28001
-8.31572
-8.35013
-8.3831
-8.4145
-8.44417
-8.47196
-8.4977
-8.52122
-8.54234
-8.56084
-8.57654
-8.5892
-8.59862
-8.60456
-8.60681
-8.60514
-8.59933
-8.58916
-8.57441
-8.55486
-8.5303
-8.50056
-8.46549
-8.4251
-8.37932
-8.32799
-8.27102
-8.20829
-8.13983
-8.06556
-7.98551
-7.89962
-7.80792
-7.71044
-7.60721
-7.49832
-7.38379
-7.26369
-7.13802
-7.0068
-6.87004
-6.72777
-6.57999
-6.42673
-6.26801
-6.10388
-5.93436
-5.75954
-5.57948
-5.39429
-5.20405
-5.0089
-4.80895
-4.60437
-4.39531
-4.18201
-3.96463
-3.7434
-3.51851
-3.29018
-3.05861
-2.82402
-2.58661
-2.34659
-2.10416
-1.85954
-1.61291
-1.36449
-1.11445
-0.862975
-0.610252
-0.356483
-0.101844
0.153484
0.409343
0.665564
0.921981
1.17842
1.43472
1.6907
1.94619
2.20102
2.45502
2.70802
2.95984
3.21033
3.4593
3.7066
3.95202
4.19542
4.43661
4.67545
4.91179
5.14549
5.37643
5.60448
5.82953
6.05148
6.27021
6.48561
6.69758
6.90602
7.11083
7.31191
7.50919
7.70257
7.89199
8.07735
8.25859
8.43545
8.60848
8.77435
8.94498
9.07014
-7.44152
-7.44211
-7.44696
-7.45505
-7.46356
-7.47173
-7.47954
-7.48696
-7.49393
-7.50033
-7.50609
-7.5111
-7.51528
-7.51856
-7.52086
-7.52213
-7.52233
-7.52144
-7.51942
-7.51629
-7.51206
-7.50671
-7.50012
-7.4923
-7.48348
-7.47382
-7.46345
-7.45261
-7.44183
-7.43194
-7.42377
-7.41756
-7.41269
-7.40881
-7.40662
-7.40683
-7.4095
-7.41503
-7.42394
-7.43632
-7.45201
-7.47076
-7.49232
-7.5164
-7.54269
-7.57091
-7.60082
-7.63221
-7.6649
-7.69872
-7.73353
-7.76918
-7.80556
-7.84255
-7.88004
-7.9179
-7.95603
-7.9943
-8.0326
-8.07079
-8.10877
-8.14638
-8.18351
-8.22006
-8.2559
-8.29092
-8.325
-8.35802
-8.38984
-8.42033
-8.44932
-8.47665
-8.50215
-8.5256
-8.5468
-8.56555
-8.5816
-8.59472
-8.60466
-8.61118
-8.61404
-8.613
-8.60782
-8.59826
-8.58408
-8.56506
-8.54097
-8.51162
-8.4769
-8.43673
-8.39111
-8.3399
-8.28294
-8.2202
-8.15165
-8.0773
-7.99712
-7.91113
-7.81934
-7.72179
-7.61856
-7.50969
-7.39525
-7.27527
-7.14976
-7.01873
-6.88219
-6.74015
-6.59263
-6.43963
-6.28119
-6.11733
-5.94809
-5.77353
-5.59372
-5.40877
-5.21875
-5.02379
-4.82402
-4.6196
-4.41071
-4.19756
-3.98034
-3.75925
-3.53451
-3.30632
-3.0749
-2.84047
-2.60323
-2.36338
-2.12114
-1.87671
-1.63029
-1.38208
-1.13226
-0.881005
-0.628522
-0.375001
-0.120612
0.134469
0.390085
0.646069
0.90226
1.15849
1.41458
1.67038
1.9257
2.18038
2.43425
2.68713
2.93886
3.18928
3.4382
3.68545
3.93085
4.17421
4.41538
4.65422
4.89056
5.12427
5.35523
5.58332
5.80842
6.03043
6.24922
6.46468
6.67671
6.8852
7.09005
7.29119
7.48851
7.68192
7.87135
8.05666
8.23778
8.41435
8.58691
8.75175
8.92189
9.04121
-7.44317
-7.4453
-7.45188
-7.4599
-7.46777
-7.47543
-7.4829
-7.4901
-7.49691
-7.50323
-7.50894
-7.51391
-7.51806
-7.5213
-7.52356
-7.52479
-7.52496
-7.52403
-7.522
-7.51886
-7.51459
-7.50913
-7.50243
-7.49467
-7.4861
-7.47684
-7.46715
-7.45751
-7.44846
-7.44044
-7.43351
-7.42747
-7.42217
-7.41802
-7.41596
-7.41675
-7.42084
-7.42855
-7.43993
-7.45472
-7.47267
-7.4935
-7.51687
-7.54249
-7.57006
-7.59932
-7.63004
-7.662
-7.69504
-7.72897
-7.76365
-7.79894
-7.83473
-7.87088
-7.9073
-7.94389
-7.98057
-8.01724
-8.05382
-8.09021
-8.12635
-8.16216
-8.19755
-8.23245
-8.26678
-8.30045
-8.33336
-8.36541
-8.39646
-8.42637
-8.45499
-8.48213
-8.5076
-8.5312
-8.55271
-8.57187
-8.58845
-8.60216
-8.61276
-8.61998
-8.62355
-8.62322
-8.61872
-8.6098
-8.5962
-8.57769
-8.55403
-8.52502
-8.49048
-8.4505
-8.40489
-8.35363
-8.29651
-8.23357
-8.16475
-8.09011
-8.00962
-7.92332
-7.83124
-7.73344
-7.63001
-7.521
-7.40647
-7.28643
-7.16092
-7.02992
-6.89345
-6.75149
-6.60409
-6.45122
-6.29292
-6.12919
-5.96009
-5.78565
-5.60598
-5.42111
-5.23118
-5.03627
-4.83655
-4.63216
-4.42331
-4.21018
-3.99299
-3.77193
-3.54723
-3.31908
-3.08773
-2.85336
-2.61621
-2.37646
-2.13434
-1.89004
-1.64377
-1.39572
-1.14607
-0.895013
-0.642745
-0.389443
-0.135287
0.119567
0.374953
0.630715
0.886687
1.14271
1.39861
1.65422
1.90937
2.1639
2.41763
2.67039
2.92202
3.17235
3.42121
3.66841
3.91375
4.15707
4.39821
4.637
4.87332
5.10703
5.33799
5.56609
5.79121
6.01325
6.23208
6.44757
6.65962
6.86813
7.07301
7.27416
7.47149
7.6649
7.8543
8.03953
8.22047
8.39671
8.56876
8.7326
8.90231
9.01646
-7.44067
-7.44418
-7.45118
-7.45871
-7.46622
-7.47368
-7.48104
-7.4882
-7.49504
-7.50144
-7.50726
-7.51238
-7.5167
-7.52011
-7.52255
-7.52395
-7.52428
-7.5235
-7.52159
-7.51855
-7.51434
-7.50896
-7.50248
-7.49511
-7.48712
-7.47876
-7.47037
-7.46223
-7.45444
-7.44715
-7.44048
-7.43456
-7.4297
-7.42651
-7.42577
-7.42807
-7.43372
-7.4429
-7.4556
-7.47162
-7.49069
-7.51253
-7.5368
-7.56318
-7.5914
-7.62119
-7.65233
-7.68459
-7.71779
-7.75175
-7.78631
-7.82131
-7.85664
-7.89216
-7.92781
-7.96347
-7.99908
-8.03457
-8.06988
-8.10497
-8.13978
-8.17428
-8.20841
-8.24214
-8.2754
-8.30814
-8.34027
-8.3717
-8.4023
-8.43192
-8.46041
-8.48758
-8.51324
-8.53717
-8.55914
-8.57888
-8.59613
-8.61059
-8.62199
-8.63003
-8.63443
-8.6349
-8.63116
-8.62293
-8.60994
-8.59194
-8.56867
-8.53992
-8.50559
-8.46554
-8.41988
-8.36837
-8.31094
-8.24759
-8.17834
-8.10321
-8.02224
-7.93545
-7.84291
-7.74471
-7.64093
-7.53163
-7.41687
-7.29665
-7.17099
-7.0399
-6.90337
-6.76139
-6.61398
-6.46113
-6.30285
-6.13917
-5.9701
-5.7957
-5.61603
-5.43116
-5.24119
-5.04624
-4.84646
-4.64201
-4.43309
-4.2199
-4.00265
-3.78154
-3.5568
-3.32863
-3.09727
-2.86291
-2.62579
-2.38611
-2.14406
-1.89984
-1.65368
-1.40576
-1.15627
-0.905389
-0.653318
-0.40023
-0.146294
0.108336
0.363497
0.619036
0.87479
1.1306
1.38629
1.64171
1.89668
2.15104
2.40461
2.65724
2.90875
3.15899
3.40779
3.65492
3.90019
4.14344
4.38451
4.62325
4.85952
5.09319
5.32413
5.55221
5.77734
5.9994
6.21826
6.43376
6.64581
6.85432
7.05919
7.26033
7.45765
7.65104
7.84039
8.02551
8.20624
8.38212
8.55365
8.71653
8.88582
8.99548
-7.43218
-7.43647
-7.44331
-7.45075
-7.45837
-7.46599
-7.47352
-7.48087
-7.48795
-7.49462
-7.50075
-7.50619
-7.51082
-7.51455
-7.51728
-7.51895
-7.51952
-7.51897
-7.51728
-7.51444
-7.51047
-7.50545
-7.49952
-7.49291
-7.48583
-7.47841
-7.47083
-7.46329
-7.45593
-7.44891
-7.44254
-7.43723
-7.43339
-7.43148
-7.43207
-7.43566
-7.44252
-7.45279
-7.46643
-7.48329
-7.50311
-7.5256
-7.55044
-7.57733
-7.60601
-7.63621
-7.6677
-7.70024
-7.73364
-7.76769
-7.80223
-7.83708
-7.87213
-7.90725
-7.94237
-7.97738
-8.01223
-8.04688
-8.08128
-8.11542
-8.14928
-8.18284
-8.21609
-8.24898
-8.28149
-8.31359
-8.34519
-8.37623
-8.40658
-8.43611
-8.46468
-8.49208
-8.51811
-8.54256
-8.56516
-8.58564
-8.60373
-8.61909
-8.63143
-8.64041
-8.64574
-8.6471
-8.64417
-8.63667
-8.62431
-8.60681
-8.58391
-8.5554
-8.52106
-8.48096
-8.43501
-8.38308
-8.32518
-8.26125
-8.19141
-8.11564
-8.03403
-7.94663
-7.85351
-7.75479
-7.65054
-7.54085
-7.42574
-7.30525
-7.17935
-7.04808
-6.91139
-6.76932
-6.62182
-6.46892
-6.3106
-6.14689
-5.97778
-5.80334
-5.62361
-5.43867
-5.2486
-5.05355
-4.85364
-4.64908
-4.44002
-4.22673
-4.00936
-3.78817
-3.56335
-3.33513
-3.10372
-2.86936
-2.63224
-2.3926
-2.1506
-1.90644
-1.66037
-1.41258
-1.16324
-0.912543
-0.660671
-0.407805
-0.154095
0.100298
0.355225
0.610526
0.866048
1.12163
1.37711
1.63232
1.8871
2.14128
2.39469
2.64717
2.89855
3.14869
3.39742
3.64448
3.88964
4.13279
4.37377
4.61243
4.84864
5.08225
5.31315
5.54121
5.76632
5.9884
6.20726
6.42275
6.63478
6.84327
7.04812
7.24924
7.44653
7.63988
7.82916
8.01416
8.19467
8.37016
8.54119
8.70315
8.87202
8.97789
-7.41614
-7.42059
-7.42756
-7.43565
-7.44392
-7.45201
-7.45991
-7.46761
-7.47507
-7.48217
-7.48875
-7.49463
-7.49968
-7.50378
-7.50688
-7.50891
-7.50983
-7.50961
-7.50828
-7.50584
-7.50235
-7.49789
-7.49258
-7.48657
-7.48001
-7.47306
-7.46585
-7.45855
-7.4514
-7.44473
-7.4389
-7.43427
-7.43127
-7.43042
-7.43216
-7.4369
-7.44485
-7.45614
-7.47068
-7.48833
-7.50884
-7.53194
-7.55735
-7.58478
-7.61398
-7.64467
-7.67662
-7.70957
-7.7433
-7.77758
-7.81225
-7.84713
-7.8821
-7.91703
-7.95185
-7.98643
-8.02076
-8.05477
-8.08848
-8.12187
-8.15497
-8.18778
-8.22031
-8.25257
-8.28455
-8.3162
-8.34748
-8.37831
-8.4086
-8.43822
-8.46702
-8.49481
-8.52138
-8.54648
-8.56986
-8.59123
-8.61026
-8.62661
-8.63995
-8.64995
-8.65626
-8.65856
-8.65649
-8.64974
-8.63799
-8.62097
-8.59839
-8.57001
-8.53567
-8.49528
-8.44891
-8.39647
-8.33792
-8.27333
-8.20276
-8.12628
-8.04395
-7.95585
-7.86208
-7.76276
-7.65799
-7.54783
-7.43232
-7.31148
-7.1853
-7.05379
-6.91692
-6.77469
-6.62708
-6.47409
-6.3157
-6.15192
-5.98275
-5.80824
-5.62841
-5.44336
-5.25318
-5.058
-4.85797
-4.65327
-4.44409
-4.23067
-4.01321
-3.79193
-3.56703
-3.33875
-3.1073
-2.87292
-2.63582
-2.39621
-2.15425
-1.91016
-1.66419
-1.41655
-1.16738
-0.916887
-0.665242
-0.412614
-0.159151
0.0949883
0.349658
0.604703
0.859973
1.11531
1.37055
1.62553
1.8801
2.13408
2.3873
2.63961
2.89085
3.14089
3.38957
3.63656
3.8816
4.12462
4.36549
4.60405
4.84017
5.07371
5.30455
5.53257
5.75767
5.97977
6.19864
6.4141
6.62609
6.83454
7.03936
7.24045
7.4377
7.63101
7.82023
8.00509
8.18536
8.36047
8.53099
8.69211
8.86052
8.96328
-7.39208
-7.39638
-7.40417
-7.41356
-7.42281
-7.43149
-7.43983
-7.44802
-7.45607
-7.46385
-7.47111
-7.47759
-7.48316
-7.48775
-7.49131
-7.49378
-7.49514
-7.49538
-7.4945
-7.49252
-7.48949
-7.48549
-7.48062
-7.47497
-7.46869
-7.4619
-7.4548
-7.44765
-7.44074
-7.43439
-7.42895
-7.42489
-7.42267
-7.42276
-7.42556
-7.43138
-7.4404
-7.45267
-7.46811
-7.48658
-7.50784
-7.53166
-7.55776
-7.58588
-7.61577
-7.64714
-7.67976
-7.71332
-7.7476
-7.78233
-7.81733
-7.8524
-7.88744
-7.92228
-7.95686
-7.99108
-8.02494
-8.05841
-8.09151
-8.12426
-8.15669
-8.18885
-8.2208
-8.25256
-8.28413
-8.31549
-8.34661
-8.37739
-8.40774
-8.43752
-8.4666
-8.4948
-8.52191
-8.54769
-8.57187
-8.59413
-8.61412
-8.63144
-8.6458
-8.65683
-8.6642
-8.6675
-8.66634
-8.66035
-8.6492
-8.63261
-8.6103
-8.58202
-8.54751
-8.50688
-8.45995
-8.40689
-8.34764
-8.28234
-8.21102
-8.13379
-8.05072
-7.96188
-7.86744
-7.76748
-7.66215
-7.55149
-7.43556
-7.31435
-7.18788
-7.05611
-6.91906
-6.77667
-6.62896
-6.47589
-6.31745
-6.15363
-5.98442
-5.80984
-5.62994
-5.4448
-5.25454
-5.05926
-4.85915
-4.65435
-4.4451
-4.23159
-4.01406
-3.7927
-3.56774
-3.3394
-3.10794
-2.87356
-2.63651
-2.39697
-2.15511
-1.91114
-1.66533
-1.41788
-1.16895
-0.918705
-0.66734
-0.414996
-0.161834
0.0920048
0.346367
0.60111
0.856079
1.11112
1.36608
1.6208
1.87511
2.12885
2.38185
2.63395
2.88502
3.13494
3.38365
3.63063
3.87555
4.11842
4.35915
4.59761
4.83363
5.0671
5.29788
5.52585
5.75095
5.97311
6.19202
6.40743
6.61937
6.82777
7.03255
7.2336
7.43082
7.62409
7.81325
7.99798
8.178
8.35272
8.52275
8.68308
8.85099
8.95131
-7.36091
-7.36545
-7.37464
-7.38572
-7.39602
-7.40531
-7.41435
-7.42338
-7.43222
-7.44083
-7.44904
-7.45639
-7.46258
-7.46762
-7.47163
-7.47457
-7.47642
-7.47713
-7.47669
-7.47512
-7.47246
-7.46875
-7.46408
-7.45854
-7.45228
-7.44549
-7.43839
-7.43125
-7.42438
-7.41818
-7.41308
-7.40956
-7.40805
-7.409
-7.41274
-7.41954
-7.42952
-7.44271
-7.45904
-7.47837
-7.5005
-7.52521
-7.55222
-7.58126
-7.61206
-7.64432
-7.67778
-7.71211
-7.74707
-7.78236
-7.81779
-7.85314
-7.88828
-7.92305
-7.9574
-7.99126
-8.02463
-8.05754
-8.09001
-8.12212
-8.15393
-8.1855
-8.2169
-8.24819
-8.27937
-8.31046
-8.34137
-8.37202
-8.40231
-8.43211
-8.46132
-8.48981
-8.51735
-8.54372
-8.56861
-8.5917
-8.61251
-8.6307
-8.64598
-8.65813
-8.66667
-8.67116
-8.67103
-8.66588
-8.65532
-8.63916
-8.61711
-8.58899
-8.55448
-8.51349
-8.4661
-8.41235
-8.35243
-8.28639
-8.21431
-8.13629
-8.05241
-7.96279
-7.86755
-7.76687
-7.66086
-7.54963
-7.4332
-7.31159
-7.18478
-7.05274
-6.91545
-6.7729
-6.62508
-6.47196
-6.3135
-6.14968
-5.98048
-5.8059
-5.62599
-5.44083
-5.25055
-5.05527
-4.85514
-4.65033
-4.44104
-4.22745
-4.0098
-3.78831
-3.56323
-3.3348
-3.10328
-2.8689
-2.63191
-2.39252
-2.15093
-1.90731
-1.66186
-1.41474
-1.16616
-0.916296
-0.665325
-0.413395
-0.160659
0.0927401
0.346658
0.600952
0.855473
1.11007
1.36459
1.61888
1.87277
2.12611
2.37872
2.63044
2.88112
3.13073
3.3793
3.62622
3.87095
4.11364
4.35422
4.59253
4.82845
5.06182
5.29252
5.52044
5.74555
5.96788
6.18691
6.40229
6.61418
6.82255
7.0273
7.22833
7.42553
7.61878
7.80794
7.99257
8.17233
8.34668
8.51623
8.67582
8.84316
8.94171
-7.32533
-7.33073
-7.34185
-7.35499
-7.36648
-7.37628
-7.38572
-7.39556
-7.40563
-7.41545
-7.42472
-7.43305
-7.43995
-7.44539
-7.44972
-7.45306
-7.45531
-7.4564
-7.4563
-7.45499
-7.4525
-7.44887
-7.44418
-7.43856
-7.43215
-7.42514
-7.4178
-7.41046
-7.4035
-7.39736
-7.39249
-7.38936
-7.38838
-7.38998
-7.39443
-7.40198
-7.41271
-7.42669
-7.44383
-7.46403
-7.4871
-7.51279
-7.54086
-7.57099
-7.60291
-7.63626
-7.67072
-7.70595
-7.74166
-7.77755
-7.81342
-7.84902
-7.88421
-7.91886
-7.95291
-7.98634
-8.01914
-8.05139
-8.08311
-8.11443
-8.14541
-8.1762
-8.20683
-8.23741
-8.26796
-8.29851
-8.32896
-8.35921
-8.38911
-8.41859
-8.44759
-8.47602
-8.50372
-8.5304
-8.55582
-8.57943
-8.60078
-8.61944
-8.63552
-8.64886
-8.65887
-8.66484
-8.6661
-8.66212
-8.65253
-8.63716
-8.61598
-8.58844
-8.55453
-8.51398
-8.4668
-8.41292
-8.35254
-8.28577
-8.2128
-8.13378
-8.04884
-7.95816
-7.86186
-7.76019
-7.65326
-7.54123
-7.42408
-7.30189
-7.17459
-7.04216
-6.90456
-6.7618
-6.61382
-6.46061
-6.3021
-6.13828
-5.96908
-5.79451
-5.6146
-5.42945
-5.23915
-5.04386
-4.8437
-4.63887
-4.42951
-4.21584
-3.99803
-3.77639
-3.55116
-3.32263
-3.09103
-2.85663
-2.61969
-2.38043
-2.1391
-1.89584
-1.65075
-1.40399
-1.1558
-0.906363
-0.655838
-0.404387
-0.152151
0.100724
0.354105
0.607847
0.861812
1.11585
1.36981
1.62354
1.87687
2.12964
2.38167
2.6328
2.88283
3.13162
3.379
3.62488
3.86908
4.11139
4.35163
4.58965
4.82529
5.05841
5.28887
5.51655
5.74148
5.96381
6.18292
6.39825
6.61008
6.81841
7.02315
7.22417
7.42137
7.61465
7.80391
7.98853
8.16807
8.34206
8.51116
8.67005
8.83677
8.93419
-7.28774
-7.2943
-7.30781
-7.32297
-7.33495
-7.34515
-7.35569
-7.36681
-7.378
-7.3889
-7.3992
-7.40843
-7.41603
-7.42197
-7.42673
-7.43048
-7.43311
-7.43452
-7.43467
-7.43351
-7.43109
-7.4274
-7.42256
-7.41665
-7.40987
-7.40246
-7.3947
-7.38695
-7.37964
-7.37324
-7.36819
-7.36499
-7.36403
-7.36574
-7.37036
-7.3782
-7.3893
-7.40377
-7.42152
-7.44249
-7.46644
-7.49319
-7.52241
-7.55382
-7.58702
-7.62163
-7.65727
-7.69352
-7.73009
-7.76661
-7.80289
-7.83866
-7.87385
-7.9082
-7.94181
-7.97453
-8.00653
-8.03775
-8.06841
-8.09853
-8.12833
-8.15788
-8.18736
-8.21685
-8.24641
-8.27608
-8.30583
-8.33549
-8.36478
-8.39349
-8.4216
-8.44914
-8.4762
-8.50309
-8.52942
-8.55435
-8.5773
-8.5977
-8.61571
-8.63062
-8.64226
-8.64957
-8.6523
-8.64939
-8.64091
-8.62648
-8.60603
-8.57933
-8.54598
-8.50595
-8.45908
-8.40525
-8.34449
-8.27705
-8.20317
-8.12309
-8.03705
-7.94523
-7.84785
-7.74516
-7.63733
-7.52447
-7.40665
-7.28387
-7.15613
-7.02338
-6.88559
-6.74273
-6.59476
-6.44159
-6.28318
-6.11946
-5.95039