/*--------------------------------*- C++ -*----------------------------------*\
  =========                 |
  \\      /  F ield         | OpenFOAM: The Open Source CFD Toolbox
   \\    /   O peration     | Website:  https://openfoam.org
    \\  /    A nd           | Version:  13
     \\/     M anipulation  |
\*---------------------------------------------------------------------------*/
FoamFile
{
    format      ascii;
    class       surfaceScalarField;
    location    "1700";
    object      phi;
}
// * * * * * * * * * * * * * * * * * * * * * * * * * * * * * * * * * * * * * //

dimensions      [0 3 -1 0 0 0 0];

internalField   nonuniform List<scalar> 
24170
(
3.04494e-06
1.43526e-07
2.88986e-06
1.5522e-07
2.74387e-06
1.45918e-07
2.61224e-06
1.31683e-07
2.49427e-06
1.17978e-07
2.3932e-06
1.01172e-07
2.306e-06
8.71396e-08
2.23258e-06
7.34332e-08
2.17335e-06
5.92548e-08
2.12303e-06
5.03634e-08
2.07789e-06
4.51248e-08
2.03928e-06
3.86104e-08
2.00908e-06
3.0215e-08
1.98697e-06
2.21189e-08
1.97144e-06
1.55495e-08
1.9615e-06
9.96652e-09
1.95925e-06
2.31803e-09
-6.24549e-09
1.96558e-06
3.4918e-06
6.90001e-08
3.53846e-06
1.08644e-07
3.56387e-06
1.20588e-07
3.57306e-06
1.22558e-07
3.57067e-06
1.20336e-07
3.55684e-06
1.15005e-07
3.53533e-06
1.08565e-07
3.51078e-06
9.79445e-08
3.48331e-06
8.66884e-08
3.45312e-06
8.05737e-08
3.42327e-06
7.50019e-08
3.39381e-06
6.81477e-08
3.36327e-06
6.0851e-08
3.33212e-06
5.33664e-08
3.30102e-06
4.67316e-08
3.27101e-06
4.00413e-08
3.24175e-06
3.1647e-08
2.43433e-08
3.21113e-06
3.67795e-06
5.35805e-08
3.69364e-06
9.30165e-08
3.71174e-06
1.02345e-07
3.72929e-06
1.05006e-07
3.74601e-06
1.03659e-07
3.76059e-06
1.00541e-07
3.77253e-06
9.66301e-08
3.78153e-06
8.89779e-08
3.7879e-06
8.03865e-08
3.79305e-06
7.54872e-08
3.79677e-06
7.12886e-08
3.79897e-06
6.59435e-08
3.79951e-06
6.03085e-08
3.79822e-06
5.46454e-08
3.79557e-06
4.93651e-08
3.79168e-06
4.39109e-08
3.78572e-06
3.76063e-08
3.18631e-08
3.77823e-06
3.93604e-06
4.28965e-08
3.94418e-06
8.45164e-08
3.95269e-06
9.35011e-08
3.96163e-06
9.58895e-08
3.96977e-06
9.53797e-08
3.97727e-06
9.29717e-08
3.98462e-06
8.91876e-08
3.99105e-06
8.25309e-08
3.99632e-06
7.51232e-08
4.00162e-06
7.02106e-08
4.0069e-06
6.6038e-08
4.0118e-06
6.10713e-08
4.01634e-06
5.57957e-08
4.02044e-06
5.0559e-08
4.02421e-06
4.55829e-08
4.0275e-06
4.06076e-08
4.02979e-06
3.53182e-08
3.06662e-08
4.03095e-06
4.21589e-06
3.41138e-08
4.22414e-06
7.62757e-08
4.23144e-06
8.60946e-08
4.23871e-06
8.85879e-08
4.24515e-06
8.89685e-08
4.25094e-06
8.72601e-08
4.25642e-06
8.37157e-08
4.26107e-06
7.78949e-08
4.26474e-06
7.14971e-08
4.2683e-06
6.66759e-08
4.27192e-06
6.2425e-08
4.27531e-06
5.76583e-08
4.2784e-06
5.26835e-08
4.28119e-06
4.77353e-08
4.28379e-06
4.29411e-08
4.28614e-06
3.82243e-08
4.28801e-06
3.34526e-08
2.91533e-08
4.28954e-06
4.51576e-06
2.7419e-08
4.5243e-06
6.74027e-08
4.53163e-06
7.84407e-08
4.53832e-06
8.16978e-08
4.5445e-06
8.26659e-08
4.55013e-06
8.15573e-08
4.5553e-06
7.84925e-08
4.55973e-06
7.34574e-08
4.56335e-06
6.78973e-08
4.56675e-06
6.32973e-08
4.5701e-06
5.90914e-08
4.57321e-06
5.45527e-08
4.57604e-06
4.98437e-08
4.57861e-06
4.51553e-08
4.58094e-06
4.05838e-08
4.58303e-06
3.61251e-08
4.58474e-06
3.17329e-08
2.76636e-08
4.58621e-06
4.83734e-06
2.27788e-08
4.84603e-06
5.87746e-08
4.85351e-06
7.09332e-08
4.86006e-06
7.51327e-08
4.86613e-06
7.66291e-08
4.87173e-06
7.59979e-08
4.87689e-06
7.33432e-08
4.88137e-06
6.89815e-08
4.88517e-06
6.4119e-08
4.8887e-06
5.97761e-08
4.89211e-06
5.56765e-08
4.89527e-06
5.13708e-08
4.89817e-06
4.69268e-08
4.9008e-06
4.2496e-08
4.90319e-06
3.81702e-08
4.90532e-06
3.39787e-08
4.90713e-06
2.99247e-08
2.61546e-08
4.90868e-06
5.18308e-06
1.92858e-08
5.19111e-06
5.06274e-08
5.19848e-06
6.34216e-08
5.20507e-06
6.84509e-08
5.21123e-06
7.04344e-08
5.21694e-06
7.02703e-08
5.22218e-06
6.80968e-08
5.22679e-06
6.43799e-08
5.23082e-06
6.01205e-08
5.23454e-06
5.60722e-08
5.23809e-06
5.21349e-08
5.24141e-06
4.80627e-08
5.24444e-06
4.38942e-08
5.24719e-06
3.97365e-08
5.24968e-06
3.5673e-08
5.25191e-06
3.17481e-08
5.25386e-06
2.79974e-08
2.44783e-08
5.25555e-06
5.55423e-06
1.63938e-08
5.5614e-06
4.35381e-08
5.56856e-06
5.62896e-08
5.57514e-06
6.18999e-08
5.58136e-06
6.4249e-08
5.58723e-06
6.44369e-08
5.59263e-06
6.27052e-08
5.59745e-06
5.95643e-08
5.60174e-06
5.58462e-08
5.6057e-06
5.21243e-08
5.60942e-06
4.84093e-08
5.61289e-06
4.45881e-08
5.61608e-06
4.07011e-08
5.61897e-06
3.68314e-08
5.62159e-06
3.30474e-08
5.62395e-06
2.93947e-08
5.62605e-06
2.59109e-08
2.26688e-08
5.6279e-06
5.95225e-06
1.39334e-08
5.95859e-06
3.71706e-08
5.96544e-06
4.94022e-08
5.97198e-06
5.53412e-08
5.97825e-06
5.79719e-08
5.98425e-06
5.84503e-08
5.98983e-06
5.71425e-08
5.99488e-06
5.4533e-08
5.99945e-06
5.13079e-08
6.00366e-06
4.79344e-08
6.0076e-06
4.44888e-08
6.01125e-06
4.09467e-08
6.01461e-06
3.73494e-08
6.01767e-06
3.37713e-08
6.02045e-06
3.02733e-08
6.02295e-06
2.68974e-08
6.0252e-06
2.36894e-08
2.0683e-08
6.0272e-06
6.37897e-06
1.17798e-08
6.38455e-06
3.16662e-08
6.39101e-06
4.29796e-08
6.39744e-06
4.8941e-08
6.40373e-06
5.17036e-08
6.40982e-06
5.23895e-08
6.41555e-06
5.14294e-08
6.42082e-06
4.92786e-08
6.42565e-06
4.6501e-08
6.43012e-06
4.34776e-08
6.43428e-06
4.03313e-08
6.43815e-06
3.70855e-08
6.44171e-06
3.37962e-08
6.44496e-06
3.05195e-08
6.44792e-06
2.73191e-08
6.45059e-06
2.42297e-08
6.453e-06
2.12893e-08
1.85496e-08
6.45516e-06
5.74246e-06
1.01752e-08
5.74665e-06
2.74967e-08
5.75179e-06
3.78575e-08
5.7571e-06
4.36444e-08
5.76239e-06
4.64339e-08
5.76756e-06
4.72364e-08
5.77248e-06
4.65187e-08
5.77707e-06
4.4701e-08
5.78133e-06
4.22602e-08
5.78528e-06
3.95289e-08
5.78898e-06
3.66404e-08
5.79241e-06
3.36574e-08
5.79558e-06
3.06241e-08
5.79848e-06
2.76205e-08
5.80113e-06
2.46719e-08
5.80352e-06
2.18383e-08
5.80569e-06
1.91393e-08
1.66219e-08
5.80764e-06
6.99981e-06
8.51807e-09
7.00415e-06
2.32088e-08
7.00968e-06
3.23622e-08
7.01558e-06
3.77663e-08
7.02156e-06
4.0472e-08
7.02748e-06
4.13406e-08
7.03317e-06
4.08406e-08
7.03854e-06
3.93446e-08
7.04356e-06
3.72511e-08
7.04826e-06
3.4839e-08
7.05266e-06
3.22541e-08
7.05674e-06
2.95651e-08
7.06053e-06
2.68466e-08
7.06401e-06
2.41343e-08
7.06719e-06
2.14952e-08
7.07009e-06
1.89418e-08
7.07273e-06
1.65259e-08
1.42589e-08
7.0751e-06
8.53253e-06
6.85435e-09
8.53695e-06
1.88282e-08
8.5428e-06
2.65462e-08
8.54925e-06
3.13451e-08
8.55592e-06
3.38192e-08
8.5626e-06
3.46805e-08
8.5691e-06
3.43483e-08
8.5753e-06
3.3153e-08
8.58115e-06
3.14019e-08
8.58666e-06
2.93344e-08
8.59183e-06
2.70906e-08
8.59666e-06
2.47463e-08
8.60113e-06
2.23684e-08
8.60527e-06
2.00052e-08
8.60906e-06
1.76977e-08
8.61254e-06
1.54768e-08
8.61571e-06
1.33657e-08
1.14047e-08
8.6186e-06
1.04009e-05
5.18215e-09
1.04054e-05
1.43981e-08
1.04115e-05
2.04698e-08
1.04184e-05
2.43985e-08
1.04258e-05
2.64913e-08
1.04332e-05
2.72317e-08
1.04406e-05
2.70089e-08
1.04477e-05
2.60657e-08
1.04544e-05
2.4649e-08
1.04608e-05
2.29488e-08
1.04668e-05
2.10734e-08
1.04725e-05
1.91197e-08
1.04777e-05
1.71221e-08
1.04826e-05
1.51507e-08
1.04871e-05
1.32131e-08
1.04912e-05
1.13643e-08
1.0495e-05
9.5974e-09
7.96929e-09
1.04984e-05
1.26785e-05
3.52346e-09
1.2683e-05
9.92065e-09
1.26893e-05
1.41405e-08
1.26968e-05
1.69565e-08
1.27048e-05
1.84611e-08
1.27131e-05
1.89702e-08
1.27214e-05
1.87596e-08
1.27294e-05
1.80196e-08
1.27371e-05
1.69178e-08
1.27445e-05
1.55835e-08
1.27515e-05
1.41206e-08
1.2758e-05
1.25785e-08
1.27641e-05
1.10212e-08
1.27698e-05
9.466e-09
1.27751e-05
7.96201e-09
1.27799e-05
6.50989e-09
1.27844e-05
5.14887e-09
3.88228e-09
1.27885e-05
1.54549e-05
1.84945e-09
1.54595e-05
5.33648e-09
1.54661e-05
7.49587e-09
1.54742e-05
8.93802e-09
1.5483e-05
9.65626e-09
1.54922e-05
9.78633e-09
1.55015e-05
9.49604e-09
1.55106e-05
8.89423e-09
1.55194e-05
8.07613e-09
1.55279e-05
7.11927e-09
1.5536e-05
6.08117e-09
1.55436e-05
5.0017e-09
1.55507e-05
3.91418e-09
1.55573e-05
2.84082e-09
1.55635e-05
1.80364e-09
1.55692e-05
8.15501e-10
1.55744e-05
-1.08948e-10
-9.50549e-10
1.55793e-05
1.88394e-05
9.5402e-11
1.88443e-05
4.39603e-10
1.88516e-05
2.64116e-10
1.88604e-05
7.00796e-11
1.88703e-05
-2.07304e-10
1.88807e-05
-5.95624e-10
1.88913e-05
-1.05602e-09
1.89018e-05
-1.56982e-09
1.8912e-05
-2.1183e-09
1.89218e-05
-2.68581e-09
1.89312e-05
-3.26013e-09
1.894e-05
-3.83044e-09
1.89483e-05
-4.38739e-09
1.89561e-05
-4.92255e-09
1.89633e-05
-5.42849e-09
1.89701e-05
-5.89784e-09
1.89763e-05
-6.32557e-09
-6.69461e-09
1.8982e-05
2.29654e-05
-1.93531e-09
2.29711e-05
-5.2853e-09
2.29796e-05
-8.25123e-09
2.29901e-05
-1.03955e-08
2.30018e-05
-1.18623e-08
2.30141e-05
-1.2879e-08
2.30266e-05
-1.35471e-08
2.3039e-05
-1.39664e-08
2.30511e-05
-1.41947e-08
2.30627e-05
-1.43045e-08
2.30738e-05
-1.43257e-08
2.30843e-05
-1.42978e-08
2.30942e-05
-1.42277e-08
2.31034e-05
-1.41368e-08
2.3112e-05
-1.40229e-08
2.312e-05
-1.38965e-08
2.31274e-05
-1.37531e-08
-1.35873e-08
2.31343e-05
1.68124e-05
-3.63198e-09
1.68171e-05
-9.95568e-09
1.68239e-05
-1.5103e-08
1.68322e-05
-1.86268e-08
1.68412e-05
-2.0887e-08
1.68506e-05
-2.22698e-08
1.68601e-05
-2.30197e-08
1.68694e-05
-2.32731e-08
1.68784e-05
-2.32057e-08
1.68871e-05
-2.29048e-08
1.68952e-05
-2.24857e-08
1.69029e-05
-2.19711e-08
1.69101e-05
-2.14298e-08
1.69168e-05
-2.0854e-08
1.69231e-05
-2.02906e-08
1.69289e-05
-1.9717e-08
1.69343e-05
-1.91688e-08
-1.86083e-08
1.69394e-05
1.46364e-05
-5.44273e-09
1.46413e-05
-1.48357e-08
1.46482e-05
-2.20116e-08
1.46562e-05
-2.66841e-08
1.46649e-05
-2.95092e-08
1.46737e-05
-3.11187e-08
1.46825e-05
-3.17987e-08
1.4691e-05
-3.18102e-08
1.46992e-05
-3.13593e-08
1.4707e-05
-3.0639e-08
1.47143e-05
-2.97487e-08
1.4721e-05
-2.87764e-08
1.47274e-05
-2.77636e-08
1.47333e-05
-2.67557e-08
1.47388e-05
-2.57642e-08
1.47439e-05
-2.48086e-08
1.47486e-05
-2.38849e-08
-2.29982e-08
1.4753e-05
1.27422e-05
-7.52316e-09
1.27476e-05
-2.02172e-08
1.27548e-05
-2.92841e-08
1.27629e-05
-3.47519e-08
1.27713e-05
-3.79317e-08
1.27798e-05
-3.95977e-08
1.27881e-05
-4.00927e-08
1.27961e-05
-3.97328e-08
1.28036e-05
-3.8843e-08
1.28106e-05
-3.76482e-08
1.28172e-05
-3.62832e-08
1.28232e-05
-3.48448e-08
1.28289e-05
-3.33844e-08
1.28341e-05
-3.19602e-08
1.28389e-05
-3.0578e-08
1.28433e-05
-2.927e-08
1.28475e-05
-2.80196e-08
-2.68375e-08
1.28513e-05
1.10935e-05
-1.00736e-08
1.10996e-05
-2.63627e-08
1.11073e-05
-3.69399e-08
1.11154e-05
-4.28972e-08
1.11238e-05
-4.62306e-08
1.1132e-05
-4.78108e-08
1.11399e-05
-4.79644e-08
1.11473e-05
-4.71375e-08
1.11542e-05
-4.57383e-08
1.11606e-05
-4.40362e-08
1.11665e-05
-4.21839e-08
1.11719e-05
-4.02734e-08
1.11769e-05
-3.83842e-08
1.11816e-05
-3.65538e-08
1.11858e-05
-3.48239e-08
1.11897e-05
-3.31819e-08
1.11933e-05
-3.1653e-08
-3.02013e-08
1.11967e-05
9.6585e-06
-1.33424e-08
9.66561e-06
-3.34879e-08
9.67369e-06
-4.50587e-08
9.68189e-06
-5.1092e-08
9.69009e-06
-5.44238e-08
9.69804e-06
-5.57479e-08
9.70551e-06
-5.5424e-08
9.71242e-06
-5.40469e-08
9.71879e-06
-5.21042e-08
9.72464e-06
-4.98783e-08
9.73e-06
-4.75313e-08
9.7349e-06
-4.516e-08
9.73938e-06
-4.28512e-08
9.74349e-06
-4.06487e-08
9.74726e-06
-3.85791e-08
9.75073e-06
-3.6651e-08
9.75395e-06
-3.4861e-08
-3.31879e-08
9.75694e-06
8.40969e-06
-1.76902e-08
8.41794e-06
-4.1721e-08
8.42634e-06
-5.34426e-08
8.43457e-06
-5.93133e-08
8.44267e-06
-6.2508e-08
8.45034e-06
-6.34168e-08
8.45741e-06
-6.24898e-08
8.46389e-06
-6.05193e-08
8.46982e-06
-5.80381e-08
8.47525e-06
-5.53078e-08
8.48019e-06
-5.24671e-08
8.48468e-06
-4.96419e-08
8.48876e-06
-4.69182e-08
8.49248e-06
-4.43589e-08
8.49589e-06
-4.19764e-08
8.49902e-06
-3.97743e-08
8.50193e-06
-3.77521e-08
-3.58662e-08
8.50461e-06
7.32311e-06
-2.35074e-08
7.33264e-06
-5.12605e-08
7.34146e-06
-6.22722e-08
7.34986e-06
-6.76959e-08
7.35795e-06
-7.05807e-08
7.3655e-06
-7.09551e-08
7.37242e-06
-6.94031e-08
7.37875e-06
-6.68532e-08
7.38456e-06
-6.38461e-08
7.38984e-06
-6.059e-08
7.39462e-06
-5.72504e-08
7.39893e-06
-5.39392e-08
7.40281e-06
-5.07965e-08
7.40631e-06
-4.78572e-08
7.40949e-06
-4.51457e-08
7.41237e-06
-4.26666e-08
7.41505e-06
-4.04117e-08
-3.83438e-08
7.41754e-06
6.37842e-06
-3.18565e-08
6.38962e-06
-6.24645e-08
6.39963e-06
-7.22659e-08
6.4091e-06
-7.70882e-08
6.41805e-06
-7.95556e-08
6.42632e-06
-7.92205e-08
6.43391e-06
-7.69889e-08
6.44085e-06
-7.37874e-08
6.44713e-06
-7.01246e-08
6.45274e-06
-6.62146e-08
6.45773e-06
-6.22103e-08
6.46208e-06
-5.83072e-08
6.46588e-06
-5.45935e-08
6.46918e-06
-5.11587e-08
6.47204e-06
-4.80031e-08
6.47452e-06
-4.5147e-08
6.4767e-06
-4.25983e-08
-4.02801e-08
6.47866e-06
5.56089e-06
-4.72825e-08
5.57696e-06
-7.85204e-08
5.59185e-06
-8.71148e-08
5.60618e-06
-9.13548e-08
5.61934e-06
-9.27118e-08
5.63101e-06
-9.08916e-08
5.64105e-06
-8.70163e-08
5.64939e-06
-8.21333e-08
5.6561e-06
-7.68314e-08
5.66127e-06
-7.13724e-08
5.66504e-06
-6.59707e-08
5.66753e-06
-6.08027e-08
5.6689e-06
-5.59791e-08
5.66933e-06
-5.15953e-08
5.66896e-06
-4.76351e-08
5.66794e-06
-4.41382e-08
5.66647e-06
-4.11144e-08
-3.87061e-08
5.6649e-06
4.87583e-06
-9.55081e-08
4.91405e-06
-1.16721e-07
4.94229e-06
-1.15298e-07
4.96113e-06
-1.10119e-07
4.9708e-06
-1.02372e-07
4.97269e-06
-9.27798e-08
4.96838e-06
-8.27062e-08
4.95931e-06
-7.30648e-08
4.94672e-06
-6.42395e-08
4.93161e-06
-5.62444e-08
4.91471e-06
-4.9065e-08
4.8966e-06
-4.26964e-08
4.87771e-06
-3.71103e-08
4.85841e-06
-3.2303e-08
4.83914e-06
-2.8371e-08
4.82031e-06
-2.53131e-08
4.80212e-06
-2.29223e-08
-2.14826e-08
4.78491e-06
4.10717e-06
3.99045e-06
3.87516e-06
3.76504e-06
3.66267e-06
3.56989e-06
3.48719e-06
3.41412e-06
3.34988e-06
3.29364e-06
3.24457e-06
3.20187e-06
3.16476e-06
3.13246e-06
3.10409e-06
3.07877e-06
3.05585e-06
3.03437e-06
-8.04874e-09
8.02637e-09
-2.19421e-08
1.3862e-08
-3.73136e-08
1.5329e-08
-5.09274e-08
1.35984e-08
-5.81001e-08
7.1228e-09
-5.27369e-08
-5.35386e-09
-3.23495e-08
-2.04664e-08
1.24873e-09
-3.35821e-08
4.40127e-08
-4.28594e-08
9.16702e-08
-4.7644e-08
1.39474e-07
-4.78925e-08
1.8443e-07
-4.49492e-08
2.24241e-07
-3.98885e-08
2.57749e-07
-3.34992e-08
2.84025e-07
-2.63314e-08
3.02733e-07
-1.86987e-08
3.13472e-07
-1.07542e-08
3.15935e-07
-2.47526e-09
3.09897e-07
6.04932e-09
2.95366e-07
1.44786e-08
2.73014e-07
2.23993e-08
2.43499e-07
2.9404e-08
2.08475e-07
3.50943e-08
1.69391e-07
3.89635e-08
1.28967e-07
4.0517e-08
8.96027e-08
3.9315e-08
5.45516e-08
3.52238e-08
2.58751e-08
2.87096e-08
5.05111e-09
2.10695e-08
-8.86734e-09
1.39861e-08
-1.67461e-08
8.1548e-09
-1.98179e-08
3.092e-09
-1.7571e-08
-1.97196e-09
-9.30954e-09
-8.39619e-09
7.94926e-09
-1.69171e-08
3.498e-08
-2.71661e-08
7.07303e-08
-3.54454e-08
1.07985e-07
-3.71947e-08
1.40453e-07
-3.22521e-08
1.63634e-07
-2.29951e-08
1.76068e-07
-1.23115e-08
1.79254e-07
-3.04755e-09
1.76268e-07
3.02307e-09
1.70618e-07
5.68161e-09
1.6541e-07
5.19998e-09
1.61428e-07
3.9557e-09
1.52484e-07
8.96569e-09
1.30594e-07
2.17303e-08
8.85119e-08
4.20887e-08
2.04711e-08
6.76518e-08
-7.02359e-08
9.06024e-08
-1.7834e-07
1.07818e-07
-2.99938e-07
1.21498e-07
-4.32317e-07
1.32287e-07
-5.72535e-07
1.40113e-07
-7.15874e-07
1.43363e-07
-8.57921e-07
1.41936e-07
-9.95196e-07
1.37342e-07
-1.12663e-06
1.31279e-07
-1.25045e-06
1.23915e-07
-1.36644e-06
1.15838e-07
-1.47331e-06
1.06946e-07
-1.57092e-06
9.7406e-08
-1.66027e-06
8.9379e-08
-1.74285e-06
8.23601e-08
-1.8186e-06
7.57711e-08
-1.88871e-06
6.99092e-08
-1.9535e-06
6.48106e-08
-2.01397e-06
6.03055e-08
-2.07037e-06
5.64191e-08
-2.12348e-06
5.2972e-08
-2.17343e-06
4.997e-08
-2.2208e-06
4.72742e-08
-2.26567e-06
4.48748e-08
-2.30842e-06
4.26755e-08
-2.34911e-06
4.0671e-08
-2.38795e-06
3.87923e-08
-2.42503e-06
3.70334e-08
-2.46043e-06
3.53593e-08
-2.49427e-06
3.37495e-08
-2.52651e-06
3.21954e-08
-2.55731e-06
3.06729e-08
-2.58655e-06
2.91927e-08
-2.61443e-06
2.77115e-08
-2.64078e-06
2.62598e-08
-2.66577e-06
2.47939e-08
-2.6892e-06
2.33519e-08
-2.71119e-06
2.18833e-08
-2.73161e-06
2.04164e-08
-2.7505e-06
1.89295e-08
-2.76796e-06
1.74156e-08
-2.78398e-06
1.58607e-08
-2.79847e-06
1.42878e-08
-2.81141e-06
1.26804e-08
-2.82272e-06
1.10621e-08
-2.83242e-06
9.40045e-09
-2.84042e-06
7.71483e-09
-2.8467e-06
5.96672e-09
-2.85115e-06
4.16919e-09
-2.85373e-06
2.30012e-09
-2.85442e-06
4.53442e-10
-2.85343e-06
-1.1931e-09
-2.85096e-06
-2.62116e-09
-2.84707e-06
-3.97898e-09
-2.84182e-06
-5.31113e-09
-2.83519e-06
-6.63482e-09
-2.82723e-06
-7.96088e-09
-2.81791e-06
-9.28386e-09
-2.80727e-06
-1.0611e-08
-2.79529e-06
-1.1932e-08
-2.782e-06
-1.32543e-08
-2.76739e-06
-1.45665e-08
-2.75148e-06
-1.58773e-08
-2.73427e-06
-1.71749e-08
-2.71577e-06
-1.84691e-08
-2.69599e-06
-1.97475e-08
-2.67495e-06
-2.10198e-08
-2.65265e-06
-2.22736e-08
-2.62913e-06
-2.35158e-08
-2.60439e-06
-2.47329e-08
-2.57845e-06
-2.59293e-08
-2.55131e-06
-2.70947e-08
-2.52302e-06
-2.82442e-08
-2.4936e-06
-2.93651e-08
-2.46309e-06
-3.04771e-08
-2.4315e-06
-3.15592e-08
-2.39887e-06
-3.26294e-08
-2.3652e-06
-3.3665e-08
-2.33055e-06
-3.46848e-08
-2.29492e-06
-3.56673e-08
-2.25836e-06
-3.66292e-08
-2.22086e-06
-3.75579e-08
-2.18249e-06
-3.84605e-08
-2.14327e-06
-3.93204e-08
-2.10324e-06
-4.01405e-08
-2.06245e-06
-4.08927e-08
-2.02099e-06
-4.15828e-08
-1.97891e-06
-4.2191e-08
-1.93609e-06
-4.29118e-08
-1.89247e-06
-4.36976e-08
-1.84815e-06
-4.437e-08
-1.80316e-06
-4.50055e-08
-1.75756e-06
-4.56118e-08
-1.71135e-06
-4.61931e-08
-1.66457e-06
-4.67503e-08
-1.61725e-06
-4.72858e-08
-1.56941e-06
-4.77985e-08
-1.52107e-06
-4.82899e-08
-1.47226e-06
-4.87644e-08
-1.423e-06
-4.92113e-08
-1.37331e-06
-4.96418e-08
-1.32322e-06
-5.00445e-08
-1.27275e-06
-5.04259e-08
-1.22194e-06
-5.07769e-08
-1.17081e-06
-5.10966e-08
-1.1194e-06
-5.13914e-08
-1.06773e-06
-5.16539e-08
-1.01583e-06
-5.18966e-08
-9.63708e-07
-5.21166e-08
-9.11391e-07
-5.23235e-08
-8.5888e-07
-5.25176e-08
-8.06191e-07
-5.27066e-08
-7.53318e-07
-5.28897e-08
-7.00276e-07
-5.3071e-08
-6.47057e-07
-5.3246e-08
-5.93683e-07
-5.34149e-08
-5.40148e-07
-5.35735e-08
-4.86475e-07
-5.37246e-08
-4.32659e-07
-5.3866e-08
-3.78722e-07
-5.39983e-08
-3.24664e-07
-5.41155e-08
-2.70528e-07
-5.42044e-08
-2.16356e-07
-5.42361e-08
-1.62262e-07
-5.41659e-08
-1.08421e-07
-5.39061e-08
-5.52517e-08
-5.32415e-08
-3.39796e-09
-5.19178e-08
4.55227e-08
-4.89882e-08
9.10552e-08
-4.55881e-08
-2.16098e-08
1.12606e-07
-3.5986e-09
1.15771e-08
-1.00652e-08
2.0248e-08
-1.37929e-08
1.89492e-08
-8.18176e-09
7.93524e-09
1.20643e-08
-1.32266e-08
4.68832e-08
-4.01869e-08
9.22269e-08
-6.58721e-08
1.43041e-07
-8.43983e-08
1.94056e-07
-9.3926e-08
2.41778e-07
-9.53682e-08
2.84504e-07
-9.06681e-08
3.21497e-07
-8.19475e-08
3.52457e-07
-7.08941e-08
3.77596e-07
-5.86451e-08
3.97132e-07
-4.59019e-08
4.11479e-07
-3.30524e-08
4.20995e-07
-2.02847e-08
4.26208e-07
-7.69539e-09
4.2753e-07
4.73349e-09
4.24868e-07
1.7105e-08
4.17872e-07
2.94166e-08
4.05783e-07
4.14455e-08
3.88112e-07
5.27877e-08
3.6423e-07
6.27958e-08
3.34163e-07
7.06339e-08
2.98123e-07
7.53491e-08
2.57354e-07
7.60801e-08
2.13719e-07
7.2368e-08
1.7055e-07
6.43875e-08
1.31749e-07
5.28393e-08
1.01656e-07
3.85125e-08
8.26985e-08
2.20401e-08
7.72384e-08
3.8139e-09
8.39619e-08
-1.52279e-08
1.02309e-07
-3.50066e-08
1.27425e-07
-5.23385e-08
1.52515e-07
-6.03442e-08
1.71147e-07
-5.57621e-08
1.80474e-07
-4.14293e-08
1.8024e-07
-2.26237e-08
1.71274e-07
-3.2233e-09
1.55495e-07
1.28639e-08
1.33387e-07
2.52014e-08
9.90674e-08
4.0062e-08
4.32697e-08
6.10147e-08
-4.16612e-08
8.88741e-08
-1.55155e-07
1.22455e-07
-2.89873e-07
1.56395e-07
-4.36611e-07
1.88776e-07
-5.87758e-07
2.18702e-07
-7.40573e-07
2.43356e-07
-8.93536e-07
2.607e-07
-1.04328e-06
2.71178e-07
-1.18615e-06
2.75106e-07
-1.31886e-06
2.72768e-07
-1.44001e-06
2.64483e-07
-1.5494e-06
2.51282e-07
-1.64704e-06
2.34964e-07
-1.73328e-06
2.17471e-07
-1.8094e-06
2.00035e-07
-1.87678e-06
1.8317e-07
-1.93704e-06
1.67193e-07
-1.99204e-06
1.52338e-07
-2.04202e-06
1.39328e-07
-2.08778e-06
1.28041e-07
-2.13024e-06
1.18187e-07
-2.17003e-06
1.09624e-07
-2.20746e-06
1.02211e-07
-2.24297e-06
9.57453e-08
-2.27668e-06
9.00995e-08
-2.30887e-06
8.51067e-08
-2.33959e-06
8.06654e-08
-2.36902e-06
7.66489e-08
-2.39716e-06
7.29915e-08
-2.42412e-06
6.95993e-08
-2.44991e-06
6.64273e-08
-2.47457e-06
6.34207e-08
-2.49811e-06
6.05456e-08
-2.52055e-06
5.77651e-08
-2.54191e-06
5.50555e-08
-2.56216e-06
5.23995e-08
-2.58133e-06
4.97757e-08
-2.59937e-06
4.71764e-08
-2.61633e-06
4.45797e-08
-2.63215e-06
4.19911e-08
-2.64686e-06
3.93885e-08
-2.66038e-06
3.67809e-08
-2.67271e-06
3.41512e-08
-2.6838e-06
3.14987e-08
-2.69367e-06
2.8816e-08
-2.70242e-06
2.60939e-08
-2.71002e-06
2.33322e-08
-2.71646e-06
2.05433e-08
-2.7217e-06
1.77325e-08
-2.72578e-06
1.4913e-08
-2.72868e-06
1.20793e-08
-2.73045e-06
9.24737e-09
-2.73113e-06
6.41145e-09
-2.73078e-06
3.60018e-09
-2.72952e-06
8.29903e-10
-2.72739e-06
-1.85273e-09
-2.72424e-06
-4.48606e-09
-2.71985e-06
-7.11097e-09
-2.71417e-06
-9.72984e-09
-2.70716e-06
-1.23412e-08
-2.69885e-06
-1.49514e-08
-2.68923e-06
-1.75645e-08
-2.67832e-06
-2.0179e-08
-2.6661e-06
-2.27953e-08
-2.6526e-06
-2.54083e-08
-2.6378e-06
-2.80171e-08
-2.62172e-06
-3.06166e-08
-2.60437e-06
-3.32057e-08
-2.58574e-06
-3.57798e-08
-2.56584e-06
-3.83375e-08
-2.5447e-06
-4.08745e-08
-2.52231e-06
-4.33888e-08
-2.49869e-06
-4.58763e-08
-2.47387e-06
-4.83315e-08
-2.44785e-06
-5.07457e-08
-2.42065e-06
-5.31137e-08
-2.39228e-06
-5.54323e-08
-2.36277e-06
-5.77069e-08
-2.33216e-06
-5.99375e-08
-2.30047e-06
-6.21302e-08
-2.26773e-06
-6.42761e-08
-2.23398e-06
-6.63788e-08
-2.19922e-06
-6.84274e-08
-2.16349e-06
-7.04279e-08
-2.12682e-06
-7.2369e-08
-2.08923e-06
-7.42582e-08
-2.05075e-06
-7.60849e-08
-2.01141e-06
-7.78543e-08
-1.97124e-06
-7.9554e-08
-1.93027e-06
-8.11865e-08
-1.88849e-06
-8.27428e-08
-1.84592e-06
-8.42371e-08
-1.80251e-06
-8.56688e-08
-1.75836e-06
-8.71133e-08
-1.71357e-06
-8.85334e-08
-1.66809e-06
-8.987e-08
-1.62197e-06
-9.11399e-08
-1.57522e-06
-9.23605e-08
-1.52787e-06
-9.3527e-08
-1.47995e-06
-9.46508e-08
-1.43148e-06
-9.57246e-08
-1.38249e-06
-9.67579e-08
-1.33301e-06
-9.77419e-08
-1.28305e-06
-9.86908e-08
-1.23264e-06
-9.9588e-08
-1.1818e-06
-1.00448e-07
-1.13056e-06
-1.01257e-07
-1.07894e-06
-1.0202e-07
-1.02697e-06
-1.02727e-07
-9.74675e-07
-1.03372e-07
-9.22094e-07
-1.03963e-07
-8.69248e-07
-1.04495e-07
-8.16165e-07
-1.04981e-07
-7.6286e-07
-1.05424e-07
-7.09356e-07
-1.05838e-07
-6.55658e-07
-1.06226e-07
-6.0178e-07
-1.06601e-07
-5.47721e-07
-1.06966e-07
-4.93491e-07
-1.07325e-07
-4.39088e-07
-1.07673e-07
-3.84523e-07
-1.08011e-07
-3.29799e-07
-1.08329e-07
-2.74928e-07
-1.08634e-07
-2.19912e-07
-1.08921e-07
-1.64763e-07
-1.09191e-07
-1.09487e-07
-1.09434e-07
-5.41128e-08
-1.09627e-07
1.31674e-09
-1.09711e-07
5.67119e-08
-1.09609e-07
1.11915e-07
-1.09153e-07
1.66644e-07
-1.08016e-07
2.20392e-07
-1.05707e-07
2.72606e-07
-1.01244e-07
3.19992e-07
-9.30104e-08
-6.71886e-08
3.65531e-07
3.70396e-10
1.1147e-08
3.50654e-09
1.701e-08
1.63834e-08
5.9673e-09
4.70249e-08
-2.27484e-08
9.50404e-08
-6.12923e-08
1.52048e-07
-9.72008e-08
2.08153e-07
-1.22013e-07
2.57452e-07
-1.33698e-07
2.978e-07
-1.34308e-07
3.29631e-07
-1.27201e-07
3.54316e-07
-1.15387e-07
3.73402e-07
-1.01039e-07
3.88011e-07
-8.55364e-08
3.99028e-07
-6.96703e-08
4.06961e-07
-5.38631e-08
4.12224e-07
-3.83253e-08
4.15073e-07
-2.315e-08
4.15749e-07
-8.38821e-09
4.14532e-07
5.94675e-09
4.11731e-07
1.98865e-08
4.07667e-07
3.34861e-08
4.0234e-07
4.67427e-08
3.95595e-07
5.95536e-08
3.86742e-07
7.16234e-08
3.74989e-07
8.24212e-08
3.59192e-07
9.11424e-08
3.38596e-07
9.67342e-08
3.12944e-07
9.80367e-08
2.83377e-07
9.40259e-08
2.52179e-07
8.40742e-08
2.22685e-07
6.80939e-08
1.9809e-07
4.66319e-08
1.81101e-07
2.08903e-08
1.72849e-07
-7.03168e-09
1.70671e-07
-3.27552e-08
1.66966e-07
-4.86514e-08
1.55438e-07
-4.87351e-08
1.34921e-07
-3.51969e-08
1.06476e-07
-1.28831e-08
7.00468e-08
1.39075e-08
2.30135e-08
4.39222e-08
-4.04747e-08
7.64626e-08
-1.26075e-07
1.1086e-07
-2.34559e-07
1.48585e-07
-3.63011e-07
1.89474e-07
-5.05125e-07
2.30988e-07
-6.53027e-07
2.70352e-07
-8.0135e-07
3.04689e-07
-9.4487e-07
3.32276e-07
-1.07865e-06
3.52437e-07
-1.19999e-06
3.64648e-07
-1.30817e-06
3.68842e-07
-1.40276e-06
3.65716e-07
-1.48401e-06
3.56303e-07
-1.55314e-06
3.41853e-07
-1.61234e-06
3.23641e-07
-1.66414e-06
3.03035e-07
-1.71062e-06
2.81415e-07
-1.75317e-06
2.59974e-07
-1.79272e-06
2.39567e-07
-1.83014e-06
2.20551e-07
-1.86609e-06
2.03131e-07
-1.90121e-06
1.87413e-07
-1.93541e-06
1.73505e-07
-1.96869e-06
1.61281e-07
-2.00108e-06
1.50557e-07
-2.03264e-06
1.41145e-07
-2.06333e-06
1.3287e-07
-2.09318e-06
1.25552e-07
-2.12214e-06
1.19035e-07
-2.15025e-06
1.13175e-07
-2.17747e-06
1.07857e-07
-2.20382e-06
1.0297e-07
-2.22929e-06
9.84251e-08
-2.25387e-06
9.4149e-08
-2.27755e-06
9.00842e-08
-2.30032e-06
8.61747e-08
-2.32218e-06
8.23838e-08
-2.34312e-06
7.86756e-08
-2.36311e-06
7.50233e-08
-2.38215e-06
7.14065e-08
-2.40022e-06
6.78061e-08
-2.41729e-06
6.42087e-08
-2.43337e-06
6.05999e-08
-2.44842e-06
5.6975e-08
-2.46243e-06
5.33231e-08
-2.47536e-06
4.9644e-08
-2.48719e-06
4.59276e-08
-2.49788e-06
4.21744e-08
-2.50745e-06
3.83826e-08
-2.51596e-06
3.45402e-08
-2.5234e-06
3.06608e-08
-2.52975e-06
2.67398e-08
-2.53498e-06
2.28053e-08
-2.5391e-06
1.88526e-08
-2.5421e-06
1.49064e-08
-2.544e-06
1.09591e-08
-2.54479e-06
7.03422e-09
-2.54449e-06
3.12954e-09
-2.54307e-06
-7.33983e-10
-2.54048e-06
-4.56545e-09
-2.53667e-06
-8.38709e-09
-2.53162e-06
-1.22197e-08
-2.52532e-06
-1.60582e-08
-2.51777e-06
-1.98994e-08
-2.50897e-06
-2.37478e-08
-2.49891e-06
-2.76015e-08
-2.48761e-06
-3.14621e-08
-2.47505e-06
-3.5324e-08
-2.46125e-06
-3.91863e-08
-2.4462e-06
-4.30419e-08
-2.42991e-06
-4.68891e-08
-2.41237e-06
-5.07207e-08
-2.3936e-06
-5.45346e-08
-2.37359e-06
-5.83233e-08
-2.35237e-06
-6.2084e-08
-2.32994e-06
-6.58098e-08
-2.30631e-06
-6.94966e-08
-2.2815e-06
-7.31342e-08
-2.25553e-06
-7.6714e-08
-2.22839e-06
-8.02265e-08
-2.20012e-06
-8.36704e-08
-2.17075e-06
-8.70454e-08
-2.1403e-06
-9.03574e-08
-2.10879e-06
-9.36031e-08
-2.07627e-06
-9.67823e-08
-2.04275e-06
-9.98885e-08
-2.00826e-06
-1.0292e-07
-1.97282e-06
-1.05873e-07
-1.93646e-06
-1.08746e-07
-1.8992e-06
-1.11536e-07
-1.86107e-06
-1.14241e-07
-1.82211e-06
-1.16858e-07
-1.78232e-06
-1.19385e-07
-1.74174e-06
-1.21817e-07
-1.70037e-06
-1.24159e-07
-1.65825e-06
-1.26419e-07
-1.61536e-06
-1.28605e-07
-1.57177e-06
-1.30743e-07
-1.52752e-06
-1.32817e-07
-1.48261e-06
-1.34801e-07
-1.43706e-06
-1.36703e-07
-1.3909e-06
-1.38531e-07
-1.34415e-06
-1.40286e-07
-1.29682e-06
-1.41971e-07
-1.24896e-06
-1.43587e-07
-1.20058e-06
-1.45134e-07
-1.1517e-06
-1.46612e-07
-1.10236e-06
-1.48028e-07
-1.05257e-06
-1.49374e-07
-1.00236e-06
-1.50656e-07
-9.51743e-07
-1.51869e-07
-9.00754e-07
-1.53007e-07
-8.49414e-07
-1.54066e-07
-7.97754e-07
-1.55033e-07
-7.45802e-07
-1.55917e-07
-6.93585e-07
-1.56714e-07
-6.41129e-07
-1.57441e-07
-5.88453e-07
-1.58105e-07
-5.35575e-07
-1.58722e-07
-4.82506e-07
-1.59301e-07
-4.29257e-07
-1.59857e-07
-3.75832e-07
-1.60397e-07
-3.22237e-07
-1.60928e-07
-2.68473e-07
-1.61445e-07
-2.14548e-07
-1.61945e-07
-1.60466e-07
-1.6242e-07
-1.06235e-07
-1.62876e-07
-5.18566e-08
-1.63308e-07
2.66089e-09
-1.63719e-07
5.73099e-08
-1.64092e-07
1.12071e-07
-1.64397e-07
1.66913e-07
-1.64561e-07
2.2176e-07
-1.64465e-07
2.76486e-07
-1.63886e-07
3.30901e-07
-1.62438e-07
3.84692e-07
-1.59505e-07
4.37457e-07
-1.54014e-07
4.88293e-07
-1.43852e-07
-1.19396e-07
5.40496e-07
-2.75389e-10
1.13501e-08
1.12448e-08
5.38319e-09
4.77972e-08
-3.0669e-08
1.07134e-07
-8.21067e-08
1.73281e-07
-1.27477e-07
2.31815e-07
-1.55739e-07
2.76218e-07
-1.66447e-07
3.06749e-07
-1.6423e-07
3.26595e-07
-1.54185e-07
3.39398e-07
-1.40006e-07
3.47837e-07
-1.23857e-07
3.53665e-07
-1.06872e-07
3.57722e-07
-8.96246e-08
3.6046e-07
-7.24159e-08
3.61978e-07
-5.54102e-08
3.62356e-07
-3.87135e-08
3.6158e-07
-2.23977e-08
3.59706e-07
-6.52477e-09
3.56786e-07
8.85413e-09
3.52938e-07
2.37109e-08
3.48393e-07
3.80273e-08
3.43343e-07
5.17691e-08
3.38019e-07
6.48803e-08
3.32403e-07
7.72183e-08
3.26356e-07
8.84952e-08
3.19253e-07
9.8233e-08
3.10387e-07
1.05642e-07
2.98797e-07
1.0962e-07
2.84019e-07
1.08851e-07
2.66006e-07
1.02062e-07
2.45698e-07
8.84421e-08
2.24516e-07
6.77434e-08
2.04235e-07
4.12017e-08
1.83817e-07
1.32935e-08
1.57465e-07
-6.34229e-09
1.19087e-07
-1.03019e-08
6.95914e-08
8.53954e-10
1.03676e-08
2.40794e-08
-6.00477e-08
5.76259e-08
-1.44715e-07
9.86486e-08
-2.44724e-07
1.43987e-07
-3.59296e-07
1.91078e-07
-4.86439e-07
2.38024e-07
-6.21297e-07
2.83455e-07
-7.57988e-07
3.26169e-07
-8.90812e-07
3.63807e-07
-1.01435e-06
3.9389e-07
-1.12517e-06
4.15492e-07
-1.22166e-06
4.28752e-07
-1.30325e-06
4.33992e-07
-1.37059e-06
4.31959e-07
-1.42547e-06
4.23684e-07
-1.47012e-06
4.10319e-07
-1.50698e-06
3.93117e-07
-1.53845e-06
3.73273e-07
-1.5667e-06
3.51847e-07
-1.59349e-06
3.29773e-07
-1.61998e-06
3.07864e-07
-1.64679e-06
2.86741e-07
-1.6741e-06
2.66849e-07
-1.70199e-06
2.48402e-07
-1.73038e-06
2.31512e-07
-1.75921e-06
2.16216e-07
-1.78821e-06
2.02491e-07
-1.81719e-06
1.90233e-07
-1.84595e-06
1.79307e-07
-1.87439e-06
1.69558e-07
-1.90237e-06
1.60835e-07
-1.92983e-06
1.52985e-07
-1.9567e-06
1.45871e-07
-1.98292e-06
1.39367e-07
-2.00845e-06
1.33361e-07
-2.03327e-06
1.27754e-07
-2.05733e-06
1.22467e-07
-2.08063e-06
1.17422e-07
-2.10313e-06
1.12561e-07
-2.12481e-06
1.07839e-07
-2.14565e-06
1.0321e-07
-2.16563e-06
9.86425e-08
-2.18474e-06
9.41088e-08
-2.20294e-06
8.95875e-08
-2.22021e-06
8.50602e-08
-2.23655e-06
8.05128e-08
-2.25192e-06
7.59332e-08
-2.26631e-06
7.13147e-08
-2.2797e-06
6.66498e-08
-2.29205e-06
6.19351e-08
-2.30334e-06
5.71688e-08
-2.31352e-06
5.23502e-08
-2.32264e-06
4.7482e-08
-2.33071e-06
4.25587e-08
-2.33775e-06
3.75896e-08
-2.34372e-06
3.25738e-08
-2.34859e-06
2.75388e-08
-2.35237e-06
2.2482e-08
-2.35505e-06
1.74301e-08
-2.35661e-06
1.23731e-08
-2.35705e-06
7.33557e-09
-2.35636e-06
2.30579e-09
-2.3545e-06
-2.69948e-09
-2.35146e-06
-7.6958e-09
-2.34721e-06
-1.26916e-08
-2.34176e-06
-1.76991e-08
-2.33511e-06
-2.27178e-08
-2.32726e-06
-2.77458e-08
-2.3182e-06
-3.27875e-08
-2.30794e-06
-3.78385e-08
-2.29648e-06
-4.29011e-08
-2.28382e-06
-4.79669e-08
-2.26995e-06
-5.30361e-08
-2.25487e-06
-5.80986e-08
-2.23859e-06
-6.31533e-08
-2.2211e-06
-6.81898e-08
-2.20242e-06
-7.32054e-08
-2.18254e-06
-7.81894e-08
-2.16147e-06
-8.31381e-08
-2.13923e-06
-8.80411e-08
-2.11583e-06
-9.28927e-08