/*--------------------------------*- C++ -*----------------------------------*\
  =========                 |
  \\      /  F ield         | OpenFOAM: The Open Source CFD Toolbox
   \\    /   O peration     | Website:  https://openfoam.org
    \\  /    A nd           | Version:  13
     \\/     M anipulation  |
\*---------------------------------------------------------------------------*/
FoamFile
{
    format      ascii;
    class       volVectorField;
    location    "1700";
    object      U;
}
// * * * * * * * * * * * * * * * * * * * * * * * * * * * * * * * * * * * * * //

dimensions      [0 1 -1 0 0 0 0];

internalField   nonuniform List<vector> 
12225
(
(9.75592 0.04674 0)
(9.30526 0.102729 0)
(8.83194 0.114204 0)
(8.3991 0.101703 0)
(7.99718 0.0886667 0)
(7.65329 0.0717331 0)
(7.36203 0.0592096 0)
(7.10971 0.0461923 0)
(6.90216 0.0314606 0)
(6.7331 0.0257494 0)
(6.58724 0.0160992 0)
(6.44853 0.0102073 0)
(6.34362 0.00693478 0)
(6.26114 -4.74411e-05 0)
(6.20369 0.000377072 0)
(6.16438 4.15014e-05 0)
(6.14144 -0.00666087 0)
(6.14038 0.00152625 0)
(10.1114 0.0569193 0)
(10.2931 0.0902911 0)
(10.41 0.0951093 0)
(10.4537 0.0946509 0)
(10.4598 0.094064 0)
(10.4364 0.0909067 0)
(10.3811 0.086863 0)
(10.3124 0.0790503 0)
(10.2374 0.0699775 0)
(10.1517 0.065687 0)
(10.0591 0.0652869 0)
(9.97683 0.0618654 0)
(9.88754 0.0556891 0)
(9.79803 0.0497252 0)
(9.70618 0.0413734 0)
(9.61578 0.0332118 0)
(9.52826 0.0250039 0)
(9.44205 0.0134657 0)
(10.0021 0.0432457 0)
(10.0575 0.0664091 0)
(10.1119 0.0722831 0)
(10.1608 0.0780951 0)
(10.2049 0.0818851 0)
(10.2485 0.0847704 0)
(10.286 0.086469 0)
(10.3147 0.0840866 0)
(10.3351 0.0800249 0)
(10.3501 0.078808 0)
(10.3619 0.0781107 0)
(10.3704 0.075646 0)
(10.3746 0.0720591 0)
(10.3734 0.0677195 0)
(10.3679 0.0637789 0)
(10.3587 0.05928 0)
(10.3457 0.0518317 0)
(10.3265 0.0430152 0)
(10.002 0.0298428 0)
(10.0348 0.0544813 0)
(10.0594 0.0652196 0)
(10.0831 0.0716018 0)
(10.1028 0.073357 0)
(10.122 0.0739101 0)
(10.1417 0.0733636 0)
(10.1599 0.0700672 0)
(10.1744 0.0659229 0)
(10.1872 0.0638655 0)
(10.2006 0.0621753 0)
(10.2139 0.0593595 0)
(10.226 0.0560432 0)
(10.2371 0.0526959 0)
(10.247 0.0495085 0)
(10.2561 0.0458345 0)
(10.2634 0.0410829 0)
(10.2683 0.0366476 0)
(10.0026 0.0243778 0)
(10.028 0.0520036 0)
(10.0496 0.0617766 0)
(10.0681 0.0651714 0)
(10.0831 0.0680508 0)
(10.097 0.0689852 0)
(10.1108 0.0686411 0)
(10.1233 0.0664898 0)
(10.133 0.0634114 0)
(10.141 0.0616838 0)
(10.1495 0.0603385 0)
(10.158 0.0582038 0)
(10.1658 0.0555583 0)
(10.1728 0.052564 0)
(10.1792 0.0494001 0)
(10.1851 0.0458995 0)
(10.1902 0.0417826 0)
(10.1943 0.0380411 0)
(10.0027 0.019389 0)
(10.0215 0.0468327 0)
(10.042 0.0558178 0)
(10.0586 0.0602136 0)
(10.072 0.0633757 0)
(10.0847 0.0651554 0)
(10.0969 0.0654289 0)
(10.1078 0.0637252 0)
(10.1166 0.0612967 0)
(10.1241 0.0596391 0)
(10.1315 0.0580773 0)
(10.1387 0.0558369 0)
(10.1454 0.053092 0)
(10.1514 0.0500561 0)
(10.1568 0.0468525 0)
(10.1618 0.043406 0)
(10.166 0.0396336 0)
(10.1695 0.0360211 0)
(10.0025 0.0159678 0)
(10.0156 0.0409996 0)
(10.0349 0.0506556 0)
(10.0507 0.0558744 0)
(10.0632 0.0591951 0)
(10.0748 0.0609044 0)
(10.0861 0.0611136 0)
(10.0963 0.0597852 0)
(10.1048 0.0578022 0)
(10.1122 0.0561399 0)
(10.1193 0.0544872 0)
(10.1262 0.0523412 0)
(10.1325 0.0497929 0)
(10.1382 0.0469756 0)
(10.1434 0.0439511 0)
(10.1481 0.0407383 0)
(10.1523 0.0373251 0)
(10.1556 0.03394 0)
(10.0021 0.0133443 0)
(10.012 0.0356491 0)
(10.0288 0.0457124 0)
(10.0434 0.0509811 0)
(10.0554 0.0543828 0)
(10.0666 0.0563847 0)
(10.0772 0.0568605 0)
(10.0869 0.0559185 0)
(10.0952 0.05431 0)
(10.1025 0.0527516 0)
(10.1095 0.051112 0)
(10.1162 0.0490937 0)
(10.1223 0.0467044 0)
(10.1279 0.0440371 0)
(10.133 0.0411732 0)
(10.1376 0.0381491 0)
(10.1417 0.0350004 0)
(10.1451 0.0318735 0)
(10.0016 0.0113146 0)
(10.0096 0.0307354 0)
(10.024 0.0407074 0)
(10.0372 0.0462371 0)
(10.0486 0.0498387 0)
(10.0593 0.0520039 0)
(10.0696 0.0526579 0)
(10.0789 0.0520183 0)
(10.0871 0.0507215 0)
(10.0944 0.049294 0)
(10.1013 0.0477042 0)
(10.1078 0.0457831 0)
(10.1138 0.0435392 0)
(10.1193 0.0410419 0)
(10.1243 0.0383608 0)
(10.1288 0.0355485 0)
(10.1328 0.0326564 0)
(10.1363 0.0297736 0)
(10.0011 0.00963203 0)
(10.0079 0.0264097 0)
(10.0199 0.0360692 0)
(10.0319 0.041776 0)
(10.0427 0.0454142 0)
(10.0529 0.0475805 0)
(10.0627 0.0483456 0)
(10.0717 0.0479508 0)
(10.0798 0.0469149 0)
(10.0871 0.0456291 0)
(10.0939 0.0441176 0)
(10.1003 0.0423011 0)
(10.1062 0.0401983 0)
(10.1116 0.037871 0)
(10.1165 0.0353761 0)
(10.121 0.0327596 0)
(10.125 0.030074 0)
(10.1285 0.0273935 0)
(10.0008 0.00812969 0)
(10.0064 0.0226123 0)
(10.0165 0.0316083 0)
(10.0272 0.0372171 0)
(10.0373 0.040794 0)
(10.047 0.0429417 0)
(10.0563 0.0438112 0)
(10.065 0.0436373 0)
(10.0729 0.0428286 0)
(10.0801 0.0416915 0)
(10.0869 0.0402888 0)
(10.0932 0.0386009 0)
(10.099 0.0366552 0)
(10.1044 0.0345001 0)
(10.1093 0.0321924 0)
(10.1137 0.0297707 0)
(10.1177 0.0272874 0)
(10.1212 0.0248018 0)
(10.0007 0.00692341 0)
(10.0054 0.0193611 0)
(10.0139 0.0276173 0)
(10.0235 0.0329979 0)
(10.0329 0.0364593 0)
(10.042 0.0385682 0)
(10.0508 0.0395112 0)
(10.0592 0.0395036 0)
(10.0669 0.0388756 0)
(10.074 0.0378734 0)
(10.0807 0.0365806 0)
(10.0869 0.035017 0)
(10.0926 0.0332114 0)
(10.0979 0.0312177 0)
(10.1028 0.0290744 0)
(10.1072 0.0268316 0)
(10.1112 0.024526 0)
(10.1147 0.0222258 0)
(10.0005 0.00587493 0)
(10.0046 0.0165717 0)
(10.0118 0.0239451 0)
(10.0204 0.0289742 0)
(10.0291 0.0322515 0)
(10.0376 0.0342568 0)
(10.0459 0.0352057 0)
(10.0539 0.0352936 0)
(10.0613 0.0347892 0)
(10.0683 0.0338967 0)
(10.0748 0.0327083 0)
(10.0808 0.0312635 0)
(10.0865 0.0296014 0)
(10.0917 0.027768 0)
(10.0964 0.025803 0)
(10.1008 0.023745 0)
(10.1047 0.0216367 0)
(10.1083 0.0195205 0)
(10.0005 0.00483173 0)
(10.0038 0.0137231 0)
(10.0099 0.0200446 0)
(10.0175 0.0245388 0)
(10.0254 0.0275098 0)
(10.0332 0.0293408 0)
(10.041 0.0302427 0)
(10.0485 0.0303896 0)
(10.0556 0.0299881 0)
(10.0622 0.0292045 0)
(10.0685 0.0281335 0)
(10.0743 0.0268196 0)
(10.0798 0.0253164 0)
(10.0849 0.0236531 0)
(10.0895 0.0218813 0)
(10.0938 0.0200211 0)
(10.0977 0.0181188 0)
(10.1012 0.0162109 0)
(10.0004 0.00378935 0)
(10.0032 0.0108298 0)
(10.0083 0.0159554 0)
(10.0148 0.0197361 0)
(10.0219 0.0222739 0)
(10.0291 0.0238371 0)
(10.0362 0.0246223 0)
(10.0432 0.0247694 0)
(10.0499 0.0244336 0)
(10.0562 0.0237483 0)
(10.0622 0.0227917 0)
(10.0678 0.0216242 0)
(10.073 0.0202796 0)
(10.0779 0.0188082 0)
(10.0824 0.0172291 0)
(10.0865 0.0155887 0)
(10.0903 0.0138973 0)
(10.0938 0.0122202 0)
(10.0003 0.00274566 0)
(10.0026 0.00790919 0)
(10.0069 0.0117052 0)
(10.0125 0.014586 0)
(10.0188 0.0165419 0)
(10.0253 0.0177291 0)
(10.0318 0.0183088 0)
(10.0383 0.0183838 0)
(10.0445 0.018067 0)
(10.0505 0.0174526 0)
(10.0562 0.0166076 0)
(10.0615 0.015582 0)
(10.0665 0.0144107 0)
(10.0712 0.0131307 0)
(10.0755 0.0117665 0)
(10.0795 0.0103482 0)
(10.0832 0.00889549 0)
(10.0865 0.00745061 0)
(10.0002 0.00169726 0)
(10.0022 0.00494452 0)
(10.0058 0.00727956 0)
(10.0107 0.00907896 0)
(10.0163 0.0102855 0)
(10.0222 0.0109722 0)
(10.0282 0.0112415 0)
(10.0342 0.0111632 0)
(10.04 0.010806 0)
(10.0456 0.0102279 0)
(10.051 0.00948047 0)
(10.0561 0.00859131 0)
(10.0608 0.00759962 0)
(10.0653 0.0065186 0)
(10.0694 0.00538379 0)
(10.0733 0.00420118 0)
(10.0768 0.00300458 0)
(10.08 0.00181128 0)
(10.0002 0.000613493 0)
(10.0019 0.00185724 0)
(10.0051 0.00257714 0)
(10.0094 0.00310498 0)
(10.0145 0.00338765 0)
(10.02 0.00342672 0)
(10.0256 0.00326957 0)
(10.0312 0.00294379 0)
(10.0367 0.00247719 0)
(10.0421 0.00189523 0)
(10.0472 0.00121861 0)
(10.052 0.000464411 0)
(10.0566 -0.00035148 0)
(10.0608 -0.00121573 0)
(10.0648 -0.00211434 0)
(10.0685 -0.00303528 0)
(10.072 -0.00396599 0)
(10.0751 -0.00488006 0)
(10.0002 -0.000585708 0)
(10.0018 -0.00156357 0)
(10.0048 -0.00268291 0)
(10.0091 -0.00362798 0)
(10.014 -0.00443883 0)
(10.0193 -0.0051827 0)
(10.0247 -0.00586804 0)
(10.0302 -0.00651875 0)
(10.0356 -0.00714341 0)
(10.0407 -0.00776141 0)
(10.0457 -0.0083762 0)
(10.0504 -0.00899984 0)
(10.0548 -0.00962889 0)
(10.059 -0.0102693 0)
(10.0629 -0.0109137 0)
(10.0665 -0.011563 0)
(10.0699 -0.0122096 0)
(10.073 -0.012838 0)
(10.0002 -0.00176608 0)
(10.002 -0.00492469 0)
(10.0054 -0.00784647 0)
(10.01 -0.0101845 0)
(10.0153 -0.0120129 0)
(10.0208 -0.013467 0)
(10.0265 -0.0146247 0)
(10.0321 -0.0155427 0)
(10.0376 -0.0162871 0)
(10.0429 -0.0169017 0)
(10.0479 -0.0174363 0)
(10.0526 -0.0179095 0)
(10.057 -0.0183527 0)
(10.0612 -0.0187683 0)
(10.065 -0.0191778 0)
(10.0686 -0.0195727 0)
(10.072 -0.0199703 0)
(10.075 -0.0203428 0)
(10.0003 -0.00287524 0)
(10.0024 -0.00802692 0)
(10.0064 -0.0125107 0)
(10.0117 -0.0159632 0)
(10.0176 -0.0185524 0)
(10.0236 -0.0205137 0)
(10.0297 -0.0219727 0)
(10.0356 -0.0230286 0)
(10.0414 -0.0237893 0)
(10.0468 -0.024339 0)
(10.052 -0.0247515 0)
(10.0568 -0.0250637 0)
(10.0613 -0.0253198 0)
(10.0655 -0.0255332 0)
(10.0694 -0.0257335 0)
(10.073 -0.0259187 0)
(10.0763 -0.0261082 0)
(10.0794 -0.0262822 0)
(10.0003 -0.00410175 0)
(10.0031 -0.0113452 0)
(10.0081 -0.0173122 0)
(10.0144 -0.0216884 0)
(10.0211 -0.0248705 0)
(10.0278 -0.0272035 0)
(10.0344 -0.0288412 0)
(10.0408 -0.0299323 0)
(10.0469 -0.0306232 0)
(10.0526 -0.0310499 0)
(10.0579 -0.0312926 0)
(10.0629 -0.0314225 0)
(10.0675 -0.0314726 0)
(10.0717 -0.0314897 0)
(10.0757 -0.0314809 0)
(10.0793 -0.0314781 0)
(10.0827 -0.0314722 0)
(10.0858 -0.0314778 0)
(10.0005 -0.00555416 0)
(10.0042 -0.0150644 0)
(10.0107 -0.0223741 0)
(10.0182 -0.0274654 0)
(10.0258 -0.0310897 0)
(10.0333 -0.0336702 0)
(10.0405 -0.0353668 0)
(10.0475 -0.0363809 0)
(10.054 -0.0369307 0)
(10.06 -0.0371732 0)
(10.0655 -0.0372104 0)
(10.0706 -0.0371179 0)
(10.0753 -0.0369516 0)
(10.0797 -0.0367548 0)
(10.0837 -0.0365526 0)
(10.0873 -0.036359 0)
(10.0908 -0.0361856 0)
(10.0939 -0.0360244 0)
(10.0007 -0.00736476 0)
(10.006 -0.0193612 0)
(10.0143 -0.0277484 0)
(10.0233 -0.0332898 0)
(10.0319 -0.0372198 0)
(10.0402 -0.039939 0)
(10.0482 -0.0415764 0)
(10.0557 -0.0424112 0)
(10.0626 -0.042736 0)
(10.0689 -0.0427454 0)
(10.0747 -0.0425494 0)
(10.0801 -0.0422159 0)
(10.0849 -0.041822 0)
(10.0894 -0.041411 0)
(10.0934 -0.0410245 0)
(10.0972 -0.0406647 0)
(10.1006 -0.0403513 0)
(10.1038 -0.0400594 0)
(10.0011 -0.00968116 0)
(10.0086 -0.0243358 0)
(10.0194 -0.0334706 0)
(10.0301 -0.0391996 0)
(10.0397 -0.0432676 0)
(10.0489 -0.0459771 0)
(10.0578 -0.0474445 0)
(10.0659 -0.0480444 0)
(10.0733 -0.0481189 0)
(10.08 -0.047873 0)
(10.0862 -0.0474103 0)
(10.0918 -0.0468161 0)
(10.0969 -0.0461674 0)
(10.1015 -0.0455281 0)
(10.1057 -0.0449317 0)
(10.1096 -0.0443987 0)
(10.1132 -0.0439366 0)
(10.1165 -0.0435172 0)
(10.0017 -0.0127476 0)
(10.0127 -0.0298811 0)
(10.0267 -0.0394589 0)
(10.0393 -0.0453266 0)
(10.0502 -0.0493516 0)
(10.0607 -0.0518075 0)
(10.0706 -0.0529596 0)
(10.0798 -0.0533037 0)
(10.0881 -0.0531589 0)
(10.0956 -0.0526897 0)
(10.1025 -0.0520107 0)
(10.1087 -0.0512036 0)
(10.1143 -0.0503652 0)
(10.1194 -0.049552 0)
(10.1239 -0.0487969 0)
(10.128 -0.0481252 0)
(10.1318 -0.0475541 0)
(10.1353 -0.0470457 0)
(10.0031 -0.0175931 0)
(10.0199 -0.0359939 0)
(10.0387 -0.0450264 0)
(10.0546 -0.0511562 0)
(10.0685 -0.0554893 0)
(10.0817 -0.0577887 0)
(10.0943 -0.0585377 0)
(10.1059 -0.0584353 0)
(10.1162 -0.057868 0)
(10.1255 -0.0569692 0)
(10.1339 -0.0558558 0)
(10.1412 -0.0546557 0)
(10.1476 -0.0534732 0)
(10.1532 -0.0523737 0)
(10.158 -0.0513803 0)
(10.1621 -0.0505063 0)
(10.1658 -0.0497733 0)
(10.1689 -0.049132 0)
(10.0084 -0.0267236 0)
(10.04 -0.0458147 0)
(10.0712 -0.0522898 0)
(10.0978 -0.0576138 0)
(10.1215 -0.0623439 0)
(10.1439 -0.065159 0)
(10.1639 -0.0663048 0)
(10.1806 -0.0663805 0)
(10.1941 -0.0658012 0)
(10.2047 -0.0647017 0)
(10.2128 -0.0632177 0)
(10.2184 -0.061546 0)
(10.2218 -0.0598248 0)
(10.2234 -0.0581734 0)
(10.2234 -0.0566808 0)
(10.2221 -0.0554065 0)
(10.2198 -0.0543346 0)
(10.2167 -0.053551 0)
(10.0401 -0.036364 0)
(10.1409 -0.062737 0)
(10.2159 -0.0681165 0)
(10.263 -0.0698058 0)
(10.2903 -0.0708417 0)
(10.3017 -0.0704559 0)
(10.299 -0.0688819 0)
(10.2846 -0.0666812 0)
(10.2616 -0.0641443 0)
(10.2325 -0.0613777 0)
(10.199 -0.0584771 0)
(10.1626 -0.0555639 0)
(10.124 -0.0527295 0)
(10.0844 -0.0501106 0)
(10.0441 -0.047697 0)
(10.0045 -0.0456115 0)
(9.96606 -0.0439675 0)
(9.92927 -0.0431061 0)
(9.88439 -0.0375331 0)
(9.63267 -0.0746562 0)
(9.36462 -0.0878062 0)
(9.09036 -0.089585 0)
(8.83326 -0.0860479 0)
(8.60035 -0.0797344 0)
(8.39206 -0.0721183 0)
(8.20698 -0.0641572 0)
(8.04387 -0.0564896 0)
(7.90073 -0.0493172 0)
(7.77583 -0.0427173 0)
(7.66691 -0.0367215 0)
(7.57232 -0.03134 0)
(7.48999 -0.0265488 0)
(7.41848 -0.0224836 0)
(7.35493 -0.0192711 0)
(7.29765 -0.0167915 0)
(7.24621 -0.0152689 0)
(-0.00274319 0.00740081 -7.83357e-19)
(-0.0126097 0.0124435 8.94733e-19)
(-0.0262502 0.0137915 -6.1748e-19)
(-0.0408139 0.0121805 -1.88301e-19)
(-0.0521394 0.00685005 2.90187e-19)
(-0.0530456 -0.00217845 -7.24165e-20)
(-0.0391275 -0.0144767 -7.17471e-20)
(-0.0136556 -0.0277724 3.88421e-19)
(0.0203819 -0.0382357 -1.95661e-19)
(0.0599578 -0.0436411 4.52207e-20)
(0.10236 -0.0445518 1.43745e-20)
(0.144187 -0.0420838 -1.53351e-19)
(0.182591 -0.0372762 2.12327e-19)
(0.215783 -0.0309296 2.15742e-19)
(0.242818 -0.0236238 1.85034e-20)
(0.2632 -0.0157258 7.78982e-20)
(0.276599 -0.00745204 3.06838e-20)
(0.283069 0.0012268 5.35252e-20)
(0.281765 0.0102466 7.97476e-20)
(0.272525 0.019175 8.6551e-21)
(0.255965 0.0273067 -2.96779e-20)
(0.232701 0.0338243 2.54533e-19)
(0.203611 0.0379603 -3.44944e-20)
(0.170025 0.0389904 3.06167e-19)
(0.133724 0.0363473 -7.20837e-20)
(0.0970788 0.0298052 3.23113e-19)
(0.0627774 0.0198784 2.00223e-19)
(0.0337216 0.00841011 1.66653e-19)
(0.0120226 -0.00120147 -8.76405e-19)
(-0.00269532 -0.00615365 -1.74281e-19)
(-0.0124909 -0.00757837 -1.04926e-18)
(-0.0177323 -0.00810398 5.90846e-19)
(-0.0185225 -0.00964115 4.26712e-19)
(-0.013572 -0.0131326 -5.35108e-19)
(-0.00127381 -0.018771 -8.81499e-19)
(0.0191167 -0.0264092 -4.91983e-20)
(0.0475472 -0.0336924 1.87701e-19)
(0.0802278 -0.0366468 3.39563e-19)
(0.112014 -0.0344966 1.90927e-19)
(0.137945 -0.0281201 3.86113e-19)
(0.154969 -0.0197254 1.42871e-19)
(0.162679 -0.0116414 3.68535e-20)
(0.162691 -0.00561066 -4.92502e-19)
(0.158126 -0.00250901 -1.0247e-19)
(0.152717 -0.00309029 2.1537e-19)
(0.148624 -0.00795589 1.1264e-20)
(0.143411 -0.0164989 5.29138e-19)
(0.131086 -0.0236888 1.7529e-19)
(0.105302 -0.0201997 7.70268e-20)
(0.0619341 -0.00180204 -7.52681e-19)
(-0.0147088 0.0176016 5.3195e-19)
(-0.112685 0.0353455 2.90866e-20)
(-0.218052 0.0564316 2.65845e-19)
(-0.33404 0.0791233 1.55695e-19)
(-0.458023 0.0993564 4.9285e-20)
(-0.587589 0.109998 9.98311e-20)
(-0.719757 0.110824 1.21848e-19)
(-0.848679 0.107066 -1.22296e-19)
(-0.973 0.103682 4.49768e-20)
(-1.09033 0.0997599 4.7849e-20)
(-1.20078 0.0949247 -1.08857e-19)
(-1.30363 0.0870402 -6.90941e-20)
(-1.39842 0.0765194 5.24831e-20)
(-1.4849 0.0693136 6.13083e-20)
(-1.56466 0.063962 1.68421e-20)
(-1.63841 0.0584028 -6.37299e-20)
(-1.70651 0.0535275 6.92409e-21)
(-1.76969 0.0493202 3.24577e-21)
(-1.82858 0.0455956 1.60703e-20)
(-1.88371 0.0424223 7.79628e-20)
(-1.93556 0.0396073 -3.85914e-21)
(-1.98454 0.0371748 -5.57328e-20)
(-2.03098 0.0349993 5.9758e-20)
(-2.07517 0.0330747 2.16852e-20)
(-2.11732 0.0313208 -3.49573e-20)
(-2.15761 0.0297311 2.89604e-20)
(-2.19618 0.0282505 -4.44499e-21)
(-2.23316 0.026874 5.55683e-20)
(-2.26862 0.0255697 2.55521e-20)
(-2.30265 0.0243258 -3.76793e-20)
(-2.33529 0.0231312 -1.07519e-20)
(-2.36658 0.0219724 2.12578e-21)
(-2.39654 0.0208506 4.22119e-20)
(-2.42521 0.0197423 5.23855e-20)
(-2.4526 0.0186629 4.61057e-20)
(-2.4787 0.0175877 -4.67855e-20)
(-2.5035 0.0165364 9.95154e-20)
(-2.52695 0.0154811 -3.95046e-21)
(-2.54904 0.0144369 7.13086e-20)
(-2.56975 0.0133902 -1.00992e-19)
(-2.58914 0.0123342 -5.41555e-20)
(-2.60724 0.0112592 4.55118e-20)
(-2.62398 0.0101746 6.61538e-20)
(-2.63932 0.00906702 -1.00306e-20)
(-2.65322 0.00794452 -6.21027e-20)
(-2.66564 0.00678656 -6.16246e-20)
(-2.67654 0.00560434 6.31607e-20)
(-2.68586 0.00438459 -3.39936e-20)
(-2.69354 0.00315726 -8.09966e-20)
(-2.69954 0.00195679 -3.52526e-20)
(-2.70376 0.00088548 8.68955e-20)
(-2.70616 1.56484e-05 4.35796e-20)
(-2.70723 -0.000713686 6.50466e-20)
(-2.70694 -0.00140446 -3.97112e-20)
(-2.70536 -0.00207498 1.26283e-20)
(-2.7025 -0.0027362 4.37898e-21)
(-2.69836 -0.00339296 -8.01254e-21)
(-2.69295 -0.00404377 -1.73219e-20)
(-2.68627 -0.00469197 -2.59509e-20)
(-2.67833 -0.00533364 -4.21064e-20)
(-2.66912 -0.00597207 -5.752e-20)
(-2.65866 -0.00660268 3.03531e-20)
(-2.64694 -0.00722883 -4.22177e-20)
(-2.63396 -0.00784555 -4.11388e-20)
(-2.61974 -0.00845623 7.2202e-20)
(-2.60427 -0.00905546 -4.24734e-21)
(-2.58756 -0.00964676 -4.59022e-20)
(-2.56962 -0.0102248 -4.76123e-20)
(-2.55047 -0.0107926 4.37174e-20)
(-2.53012 -0.0113445 3.25202e-21)
(-2.50856 -0.0118825 1.29791e-20)
(-2.48581 -0.0124027 -8.44262e-21)
(-2.46189 -0.0129111 -2.44967e-20)
(-2.43683 -0.0134023 2.05465e-20)
(-2.41065 -0.0138844 -1.79709e-20)
(-2.38338 -0.0143482 1.60738e-20)
(-2.35503 -0.0148019 2.14917e-20)
(-2.32562 -0.0152358 -7.50926e-21)
(-2.29517 -0.0156578 2.04034e-20)
(-2.2637 -0.0160568 -1.74996e-20)
(-2.23123 -0.0164367 4.08126e-20)
(-2.19779 -0.0168006 -3.3917e-21)
(-2.1634 -0.0171363 -3.87628e-20)
(-2.12808 -0.0174302 8.42637e-21)
(-2.09187 -0.0176623 -1.77127e-21)
(-2.05482 -0.0177582 7.19976e-21)
(-2.01699 -0.0176599 5.52263e-21)
(-1.97846 -0.0173461 -3.53716e-22)
(-1.93916 -0.0173346 2.01107e-21)
(-1.89898 -0.0176454 -9.57991e-22)
(-1.85797 -0.0178758 2.55091e-20)
(-1.81619 -0.0181012 2.79908e-20)
(-1.77367 -0.0183198 -1.7248e-20)
(-1.73044 -0.0185345 -2.04775e-20)
(-1.68652 -0.0187461 -3.9383e-20)
(-1.64193 -0.018956 -6.06973e-20)
(-1.59669 -0.0191643 -4.79065e-20)
(-1.55083 -0.0193724 -8.05283e-20)
(-1.50435 -0.0195808 4.10951e-20)
(-1.4573 -0.019783 3.9293e-20)
(-1.40966 -0.0199891 6.9411e-20)
(-1.36148 -0.0201884 5.26545e-20)
(-1.31276 -0.0203893 1.52378e-19)
(-1.26356 -0.0205821 1.04863e-20)
(-1.21386 -0.0207735 6.82324e-21)
(-1.16372 -0.0209631 -1.20588e-19)
(-1.11315 -0.0211494 1.9333e-19)
(-1.06218 -0.0213384 -1.1627e-19)
(-1.01083 -0.0215286 1.63497e-20)
(-0.959103 -0.0217252 5.97729e-20)
(-0.907018 -0.0219284 2.20289e-20)
(-0.854576 -0.022142 5.66168e-20)
(-0.801779 -0.0223664 2.70326e-19)
(-0.748625 -0.0226035 1.3429e-19)
(-0.695116 -0.0228526 6.3868e-20)
(-0.641254 -0.0231149 9.10676e-20)
(-0.587044 -0.0233906 2.58813e-19)
(-0.532491 -0.0236824 -1.13989e-20)
(-0.477599 -0.0239914 3.02118e-19)
(-0.422372 -0.0243194 4.38756e-19)
(-0.366817 -0.0246656 4.29675e-19)
(-0.310948 -0.0250253 -1.57503e-20)
(-0.254804 -0.0253916 4.10707e-20)
(-0.198452 -0.0257694 -9.78628e-20)
(-0.142042 -0.0261061 -1.23751e-18)
(-0.0858788 -0.0262671 6.18179e-19)
(-0.0302723 -0.0260452 4.59979e-19)
(0.0216952 -0.0246198 -8.95098e-19)
(0.0792727 -0.0217289 -8.146e-19)
(0.0961051 -0.00996331 1.19127e-18)
(-0.000375895 0.020094 2.18958e-18)
(-0.00589309 0.0354122 -1.67684e-18)
(-0.0128783 0.0371073 -7.08774e-19)
(-0.0145068 0.0287404 1.98877e-18)
(-0.0028636 0.00869735 4.44835e-19)
(0.024721 -0.0259588 1.96073e-19)
(0.0618988 -0.0665519 -1.2095e-19)
(0.10516 -0.101022 -4.40382e-19)
(0.150618 -0.123202 -2.46384e-20)
(0.194765 -0.132169 -3.11739e-19)
(0.235192 -0.130191 1.65248e-20)
(0.270822 -0.120529 -4.28787e-21)
(0.301241 -0.106072 9.52926e-20)
(0.326391 -0.0889429 1.36317e-20)
(0.346452 -0.0705536 -2.96514e-20)
(0.361698 -0.0517268 -2.48474e-19)
(0.372504 -0.0328753 -5.36728e-20)
(0.379049 -0.0141659 2.35726e-19)
(0.382189 0.00438575 -2.7455e-19)
(0.381979 0.0226769 7.68115e-20)
(0.378062 0.0404264 6.98914e-21)
(0.369904 0.0571135 1.53634e-19)
(0.356908 0.0720376 1.82125e-19)
(0.338508 0.084176 1.60467e-19)
(0.314366 0.0923488 2.18553e-19)
(0.284533 0.0953135 -1.32625e-19)
(0.249697 0.092106 3.6334e-20)
(0.211395 0.0825651 5.16359e-20)
(0.172012 0.0677092 -2.31515e-19)
(0.134547 0.0494461 -1.95468e-19)
(0.102511 0.0296858 -3.93653e-19)
(0.0796232 0.00980991 -1.52226e-19)
(0.0686683 -0.00993137 -1.3648e-18)
(0.0703004 -0.0291471 5.40764e-19)
(0.0829921 -0.0488417 -6.49218e-19)
(0.103975 -0.0684188 6.19219e-19)
(0.127089 -0.0814581 -4.66357e-19)
(0.146833 -0.0814066 1.09026e-19)
(0.159464 -0.0685369 2.5129e-19)
(0.163816 -0.048479 -1.93788e-19)
(0.160201 -0.0270255 1.73991e-19)
(0.149504 -0.00951711 -7.76459e-20)
(0.132979 0.0016015 -3.34802e-19)
(0.109115 0.00804747 -1.11076e-18)
(0.0717386 0.0145246 -9.40193e-19)
(0.0105501 0.0291858 1.18201e-20)
(-0.0837805 0.0605801 -8.98256e-19)
(-0.201006 0.100715 -1.59501e-19)
(-0.329583 0.142917 4.01026e-19)
(-0.463837 0.183129 4.68032e-19)
(-0.603825 0.216713 9.03728e-20)
(-0.744815 0.241734 -3.31484e-20)
(-0.883635 0.258589 -3.01898e-20)
(-1.01825 0.267337 -8.84035e-20)
(-1.14503 0.268725 -6.28546e-20)
(-1.26219 0.263564 -1.54981e-19)
(-1.36864 0.252848 -1.74136e-19)
(-1.46423 0.238111 -3.79299e-20)
(-1.54867 0.22122 2.43609e-20)
(-1.62364 0.203588 -1.20104e-19)
(-1.68997 0.186067 8.99096e-20)
(-1.74953 0.169457 -3.82654e-20)
(-1.80335 0.153976 -1.5114e-19)
(-1.85249 0.140115 1.15309e-20)
(-1.8976 0.127837 1.07375e-19)
(-1.93937 0.117078 -4.10461e-20)
(-1.9785 0.107675 4.51029e-21)
(-2.01544 0.0995459 -9.39499e-20)
(-2.05048 0.092462 3.22086e-20)
(-2.0839 0.0863143 -5.47039e-20)
(-2.11585 0.0809027 9.75475e-22)
(-2.1465 0.0761388 -6.71173e-20)
(-2.17594 0.0718663 2.15738e-21)
(-2.20425 0.0680262 -3.95939e-20)
(-2.23148 0.0645052 5.23425e-20)
(-2.25768 0.0612667 -9.01767e-20)
(-2.28288 0.0582379 1.17265e-20)
(-2.30709 0.0553913 -9.09072e-20)
(-2.33032 0.052683 3.5668e-21)
(-2.35259 0.0500874 7.16938e-20)
(-2.3739 0.0475862 1.40695e-20)
(-2.39424 0.0451553 -4.20659e-20)
(-2.4136 0.0427914 -6.29745e-20)
(-2.43198 0.040463 3.60954e-20)
(-2.44937 0.0381844 1.01886e-19)
(-2.46575 0.0359247 -3.22708e-20)
(-2.48111 0.0337039 -1.1024e-21)
(-2.49538 0.0314913 -2.72634e-21)
(-2.50856 0.0292987 6.5471e-20)
(-2.52063 0.0271129 2.29935e-19)
(-2.53165 0.0249264 5.01166e-20)
(-2.54163 0.0227358 9.40847e-20)
(-2.55057 0.020557 -2.04259e-19)
(-2.55844 0.0183869 -9.83369e-20)
(-2.56522 0.0162405 6.40278e-20)
(-2.57093 0.0141001 1.30348e-19)
(-2.57558 0.0119785 -7.16915e-20)
(-2.57919 0.00985259 -2.91779e-20)
(-2.58183 0.0077374 -5.02979e-20)
(-2.58356 0.00563314 7.30562e-20)
(-2.58448 0.00361021 -1.01409e-19)
(-2.58466 0.0017269 -7.61944e-20)
(-2.58369 -3.34793e-05 -4.90662e-20)
(-2.58153 -0.00173525 1.61979e-19)
(-2.57813 -0.00339689 -1.8247e-20)
(-2.5735 -0.00503029 1.13861e-20)
(-2.56763 -0.00664171 5.92012e-20)
(-2.56053 -0.00822947 1.27261e-19)
(-2.5522 -0.00979632 -1.73413e-20)
(-2.54263 -0.0113372 -4.86042e-20)
(-2.53183 -0.0128545 3.8275e-21)
(-2.5198 -0.0143429 -8.92357e-20)
(-2.50653 -0.0158051 9.63742e-20)
(-2.49202 -0.0172363 3.59485e-20)
(-2.47629 -0.0186392 2.81776e-20)
(-2.45932 -0.0200087 6.95743e-20)
(-2.44114 -0.0213472 8.30657e-20)
(-2.42175 -0.0226497 -4.31307e-20)
(-2.40116 -0.0239164 2.77905e-20)
(-2.37939 -0.02514 3.98199e-20)
(-2.35643 -0.0263203 4.76552e-20)
(-2.33229 -0.0274541 -5.41612e-21)
(-2.307 -0.0285491 -2.07744e-21)
(-2.28058 -0.0296027 -3.73007e-20)
(-2.25306 -0.0306237 -3.39309e-20)
(-2.22447 -0.0316028 -3.56914e-20)
(-2.19481 -0.0325472 3.42403e-20)
(-2.16411 -0.0334463 -4.72138e-21)
(-2.13239 -0.034309 -1.91421e-20)
(-2.09968 -0.0351257 -3.83875e-21)
(-2.06599 -0.0359065 -2.03166e-20)
(-2.03135 -0.0366415 -2.45864e-20)
(-1.99578 -0.0373408 -1.14137e-20)
(-1.9593 -0.0379968 5.25609e-21)
(-1.92195 -0.038619 3.39085e-21)
(-1.88373 -0.0392165 2.86653e-21)
(-1.84463 -0.0398125 -1.47793e-21)
(-1.80463 -0.0404007 5.22828e-22)
(-1.76375 -0.0409563 -4.1663e-23)
(-1.7221 -0.0414383 1.1515e-20)
(-1.67969 -0.0418602 -1.0251e-20)
(-1.63652 -0.0422404 1.55715e-20)
(-1.5926 -0.0425909 8.1024e-21)
(-1.54797 -0.0429113 -1.76626e-20)
(-1.50264 -0.0432072 -6.03668e-21)
(-1.45663 -0.043477 -3.26245e-20)
(-1.40997 -0.0437246 -2.12526e-20)
(-1.36267 -0.0439472 4.79703e-20)
(-1.31476 -0.0441536 8.01282e-20)
(-1.26626 -0.044333 -1.1352e-19)
(-1.21716 -0.0444965 3.57078e-20)
(-1.16753 -0.0446345 7.22895e-21)
(-1.11734 -0.0447533 -2.07597e-19)
(-1.06665 -0.044846 5.21897e-21)
(-1.01546 -0.0449119 3.35482e-21)
(-0.963809 -0.0449558 -7.1687e-20)
(-0.91172 -0.0449743 9.26255e-20)
(-0.859218 -0.0449766 1.33006e-19)
(-0.80632 -0.044963 1.41064e-19)
(-0.753039 -0.0449407 1.27677e-19)
(-0.699388 -0.0449119 -1.9337e-19)
(-0.645371 -0.0448825 2.51358e-20)
(-0.590992 -0.0448537 -5.50859e-20)
(-0.53625 -0.0448287 1.51837e-19)
(-0.481144 -0.044805 -4.71333e-20)
(-0.425675 -0.0447831 1.95382e-19)
(-0.369847 -0.0447604 -1.99085e-19)
(-0.313664 -0.0447396 -3.1646e-19)
(-0.257127 -0.0447196 -4.95157e-19)
(-0.200241 -0.0447023 -2.39619e-19)
(-0.143008 -0.0446838 -1.11209e-19)
(-0.0854408 -0.0446559 5.48297e-20)
(-0.0275718 -0.0445938 3.4364e-20)
(0.0305398 -0.0444503 -4.03643e-19)
(0.0887907 -0.0441541 -3.73152e-19)
(0.146906 -0.0435821 5.12785e-19)
(0.204822 -0.042507 6.23637e-19)
(0.260384 -0.0404226 5.82101e-19)
(0.318762 -0.0364954 2.91767e-19)
(0.355557 -0.0245783 -6.24907e-19)
(0.000298143 0.0228244 2.82279e-19)
(0.000692915 0.0400418 2.65206e-18)
(0.00548485 0.0344468 2.75513e-18)
(0.0232238 0.0049127 -1.91884e-18)
(0.0599834 -0.0507562 3.4129e-19)
(0.109456 -0.115425 -1.52906e-19)
(0.161513 -0.169042 -6.12474e-20)
(0.209012 -0.20165 4.5845e-19)
(0.248853 -0.212975 3.54069e-19)
(0.280714 -0.207656 2.90956e-19)
(0.305617 -0.191299 1.30197e-19)
(0.324943 -0.168652 1.22937e-19)
(0.339898 -0.143034 -3.90948e-19)
(0.351355 -0.116464 -2.42358e-19)
(0.359898 -0.0900567 8.70633e-20)
(0.365913 -0.0643543 -1.88735e-19)
(0.369679 -0.0395725 1.84964e-19)
(0.371382 -0.0157982 2.7918e-20)
(0.371252 0.00699186 2.75654e-19)
(0.369617 0.0289291 2.40191e-19)
(0.366718 0.0501562 -2.2724e-19)
(0.362731 0.0706435 -6.12084e-19)
(0.357615 0.0901097 -1.10452e-19)
(0.350999 0.107887 -7.15425e-19)
(0.342177 0.122935 1.61483e-19)
(0.330225 0.133857 2.56065e-19)
(0.314195 0.139103 -1.05178e-19)
(0.293513 0.137302 3.77108e-19)
(0.26848 0.127666 2.1563e-19)
(0.240541 0.110249 5.18498e-19)
(0.212389 0.085926 -2.88525e-19)
(0.187318 0.0561993 -2.09442e-19)
(0.168816 0.0226862 1.22913e-19)
(0.15831 -0.0132733 -1.62508e-19)
(0.155065 -0.0497753 -2.16438e-19)
(0.153956 -0.0796856 -1.25485e-20)
(0.146563 -0.0900356 -5.66543e-19)
(0.131247 -0.0784548 1.80739e-19)
(0.1093 -0.0523805 -4.4347e-19)
(0.0807854 -0.0204556 -1.58566e-19)
(0.0448875 0.0128994 1.54669e-19)
(-0.00161596 0.0440254 -1.65385e-19)
(-0.0688244 0.0735875 -2.91031e-19)
(-0.158739 0.111115 6.22085e-19)
(-0.267292 0.158077 5.28667e-19)
(-0.39123 0.209586 -2.7903e-19)
(-0.524743 0.262189 1.03345e-19)
(-0.661332 0.311213 -1.01538e-19)
(-0.795383 0.352995 -1.55685e-19)
(-0.922588 0.386172 -6.74119e-20)
(-1.0397 0.409324 -6.60515e-20)
(-1.14503 0.421482 1.16179e-19)
(-1.23817 0.42322 1.868e-20)
(-1.31884 0.415731 8.11407e-20)
(-1.38783 0.40056 8.9489e-21)
(-1.44687 0.379373 9.97207e-21)
(-1.49808 0.354117 4.21285e-20)
(-1.54363 0.326851 6.47247e-20)
(-1.585 0.299419 -1.08194e-20)
(-1.62339 0.273143 2.0639e-19)
(-1.65959 0.248602 1.47941e-19)
(-1.69428 0.226126 3.40862e-20)
(-1.72803 0.205901 7.59529e-20)
(-1.76105 0.18822 -1.76385e-19)
(-1.7933 0.172859 2.60581e-20)
(-1.82479 0.159512 1.01738e-19)
(-1.85554 0.147917 -1.63026e-19)
(-1.88557 0.137832 -7.37565e-20)
(-1.91487 0.129006 4.94601e-20)
(-1.94343 0.121235 3.86658e-20)
(-1.97125 0.114322 -8.19527e-20)
(-1.99831 0.108123 1.41429e-19)
(-2.02462 0.10249 1.64969e-20)
(-2.05016 0.0973251 5.09541e-20)
(-2.07494 0.0925276 -1.67176e-19)
(-2.09895 0.0880327 1.61904e-19)
(-2.12217 0.0837755 3.40202e-20)
(-2.1446 0.0797127 -7.02316e-20)
(-2.16622 0.0758029 -1.28059e-19)
(-2.18703 0.0720157 -6.36571e-20)
(-2.20701 0.0683291 1.02289e-20)
(-2.22613 0.06472 2.7607e-20)
(-2.24438 0.0611761 -1.30532e-20)
(-2.26176 0.057678 -9.78767e-20)
(-2.27823 0.0542246 -2.69844e-20)
(-2.29378 0.0507995 -2.98509e-20)
(-2.30839 0.0474058 1.79345e-20)
(-2.32201 0.0440302 -6.23229e-20)
(-2.33461 0.0406726 -8.9686e-20)
(-2.34619 0.0373296 -1.10734e-19)
(-2.3568 0.0339914 3.58564e-20)
(-2.36644 0.0306656 -1.31398e-19)
(-2.3751 0.0273556 1.28098e-19)
(-2.38276 0.0240794 1.11065e-20)
(-2.38939 0.0208402 -3.03782e-20)
(-2.395 0.01765 -5.66696e-20)
(-2.39959 0.0145128 1.96141e-20)
(-2.40317 0.0114408 9.47175e-20)
(-2.40573 0.00844447 7.80872e-20)
(-2.40728 0.00553486 3.4661e-20)
(-2.40776 0.00270825 4.15904e-20)
(-2.40714 -7.09155e-05 2.07401e-20)
(-2.40535 -0.00282045 1.91829e-20)
(-2.4024 -0.00553089 -2.65345e-19)
(-2.39827 -0.00820039 5.21229e-20)
(-2.39296 -0.0108333 4.71268e-20)
(-2.38646 -0.0134309 -9.14752e-20)
(-2.37878 -0.0159937 7.76304e-20)
(-2.3699 -0.0185198 -2.57751e-20)
(-2.35984 -0.0210075 1.11507e-19)
(-2.34858 -0.0234542 8.09209e-20)
(-2.33612 -0.0258577 5.67895e-20)
(-2.32246 -0.0282154 -3.73107e-20)
(-2.30759 -0.0305257 4.4902e-20)
(-2.29153 -0.0327857 2.87905e-20)
(-2.27427 -0.0349935 -3.45555e-20)
(-2.25582 -0.0371466 -5.15815e-20)
(-2.23619 -0.0392425 1.60419e-19)
(-2.21539 -0.0412763 2.37921e-20)
(-2.19342 -0.0432425 -5.42841e-20)
(-2.1703 -0.0451368 -1.35504e-19)
(-2.14603 -0.046959 -1.70469e-20)
(-2.12063 -0.0487119 -1.1422e-21)
(-2.09412 -0.0503996 -4.63356e-20)
(-2.06655 -0.0520236 4.74601e-21)
(-2.03791 -0.0535824 3.56832e-20)
(-2.00824 -0.0550754 -9.63204e-20)
(-1.97756 -0.0565 3.13635e-20)
(-1.94587 -0.0578572 1.20491e-20)
(-1.91321 -0.0591446 4.50274e-20)
(-1.8796 -0.0603647 -1.17847e-20)
(-1.84506 -0.0615144 2.33806e-20)
(-1.8096 -0.0625955 5.33848e-20)
(-1.77325 -0.0636048 4.90356e-21)
(-1.73603 -0.0645423 -1.55062e-20)
(-1.69795 -0.0654087 3.24202e-21)
(-1.65901 -0.0662146 1.59414e-21)
(-1.61924 -0.0669687 -1.24536e-22)
(-1.57864 -0.0676947 2.93336e-21)
(-1.53728 -0.0683751 -8.58214e-22)
(-1.49516 -0.0689894 4.36648e-21)
(-1.45229 -0.0695468 -4.08534e-20)
(-1.40869 -0.070055 -5.72467e-21)
(-1.36438 -0.0705151 -6.31426e-21)
(-1.31938 -0.0709319 -1.25472e-20)
(-1.2737 -0.0713048 5.89401e-20)
(-1.22738 -0.0716376 -1.74259e-20)
(-1.18042 -0.0719283 -3.77742e-20)