/*--------------------------------*- C++ -*----------------------------------*\
  =========                 |
  \\      /  F ield         | OpenFOAM: The Open Source CFD Toolbox
   \\    /   O peration     | Website:  https://openfoam.org
    \\  /    A nd           | Version:  13
     \\/     M anipulation  |
\*---------------------------------------------------------------------------*/
FoamFile
{
    format      ascii;
    class       volScalarField;
    location    "100";
    object      k;
}
// * * * * * * * * * * * * * * * * * * * * * * * * * * * * * * * * * * * * * //

dimensions      [0 2 -2 0 0 0 0];

internalField   nonuniform List<scalar> 
12225
(
0.545352
1.54089
2.54263
2.7264
3.74523
3.1914
3.54343
2.55538
1.74113
2.691
2.02747
1.65754
1.46188
1.31697
1.96222
2.77542
2.10751
2.3824
0.381899
0.412364
0.0183801
0.0432853
0.0903223
0.211009
0.196257
0.187936
0.130265
0.210515
0.202245
0.250768
0.259562
0.291077
0.301939
0.359965
0.411861
0.489856
0.375782
0.405685
0.0714044
0.0233757
0.0156192
0.0108624
0.00621252
0.00862354
0.00626638
0.0083071
0.00840463
0.009182
0.0116394
0.012871
0.0179305
0.0239137
0.0373353
0.0652424
0.373971
0.387599
0.199925
0.0759224
0.0304292
0.0108781
0.00854575
0.00674628
0.00540383
0.00339968
0.00227826
0.00187494
0.00197315
0.00362232
0.00365426
0.00901134
0.00948106
0.0103342
0.375502
0.373702
0.297635
0.159541
0.0782638
0.0409032
0.0256
0.0168349
0.0140065
0.0123699
0.0147665
0.0163097
0.0149286
0.0279096
0.028319
0.0304624
0.0428905
0.050162
0.373674
0.368979
0.339066
0.285476
0.204591
0.152597
0.104934
0.0970122
0.0895846
0.0823162
0.0773116
0.0780238
0.0798027
0.0991881
0.132136
0.128756
0.130137
0.130857
0.373585
0.369711
0.350382
0.334198
0.310737
0.291715
0.270066
0.253619
0.243237
0.237668
0.226199
0.223628
0.233257
0.225583
0.231675
0.230759
0.22916
0.222992
0.373469
0.370616
0.362533
0.355481
0.346899
0.340011
0.33254
0.326117
0.320888
0.317231
0.31244
0.307904
0.303798
0.298046
0.293981
0.287542
0.284441
0.278418
0.373685
0.371084
0.366505
0.362586
0.35849
0.354728
0.350971
0.347859
0.344487
0.341689
0.33825
0.334618
0.330779
0.326259
0.322743
0.317801
0.31511
0.310647
0.373845
0.371554
0.368517
0.365694
0.36286
0.360299
0.357723
0.355522
0.353151
0.350902
0.34842
0.345708
0.342938
0.339774
0.337141
0.333921
0.331849
0.328936
0.373829
0.371621
0.369206
0.366897
0.364631
0.362526
0.360459
0.358576
0.356674
0.354787
0.352839
0.350775
0.348713
0.34648
0.34452
0.342339
0.340703
0.338731
0.373819
0.371597
0.369386
0.367266
0.365221
0.363287
0.361425
0.359676
0.357969
0.356284
0.354611
0.352894
0.351219
0.349474
0.347887
0.346227
0.344853
0.343338
0.373822
0.371571
0.369417
0.367363
0.365403
0.363542
0.361769
0.360084
0.358472
0.356904
0.355384
0.353874
0.352418
0.35096
0.349597
0.348233
0.34702
0.345769
0.373825
0.371559
0.369411
0.367371
0.365435
0.363596
0.361851
0.36019
0.358611
0.357096
0.355648
0.354245
0.352904
0.351599
0.350363
0.349161
0.348041
0.346942
0.373826
0.371554
0.369403
0.367362
0.365427
0.363589
0.361845
0.360188
0.358613
0.357112
0.355682
0.354316
0.353013
0.351766
0.350577
0.349439
0.348356
0.34732
0.373825
0.371552
0.369397
0.367353
0.365415
0.363574
0.361827
0.360166
0.358588
0.357086
0.355657
0.354295
0.352998
0.35176
0.350581
0.349456
0.348383
0.347358
0.373825
0.37155
0.369393
0.367347
0.365406
0.363563
0.361812
0.360148
0.358566
0.35706
0.355627
0.354262
0.352962
0.351723
0.350541
0.349415
0.348338
0.347313
0.373825
0.371549
0.369392
0.367344
0.365401
0.363556
0.361803
0.360136
0.358551
0.357042
0.355605
0.354237
0.352932
0.351689
0.350503
0.349373
0.348293
0.347265
0.373825
0.371549
0.369392
0.367344
0.3654
0.363554
0.3618
0.360131
0.358544
0.357032
0.355593
0.354222
0.352914
0.351668
0.350479
0.349345
0.348262
0.34723
0.373826
0.37155
0.369394
0.367347
0.365404
0.363559
0.361804
0.360136
0.358548
0.357037
0.355595
0.354224
0.352914
0.351667
0.350474
0.349338
0.348249
0.347212
0.373826
0.371554
0.369397
0.367353
0.365411
0.363569
0.361815
0.360149
0.358561
0.357051
0.35561
0.354238
0.352926
0.351671
0.350467
0.349312
0.3482
0.347128
0.373827
0.371556
0.369402
0.367362
0.365422
0.363584
0.361831
0.36017
0.358581
0.357076
0.355632
0.354254
0.352913
0.35161
0.350322
0.349063
0.347803
0.346556
0.373832
0.371557
0.369414
0.367372
0.365441
0.363608
0.361856
0.360204
0.358611
0.357107
0.355621
0.354176
0.352661
0.351111
0.349453
0.34774
0.345929
0.344061
0.373836
0.371552
0.369444
0.367379
0.365487
0.363639
0.361902
0.360254
0.358632
0.35707
0.355365
0.353584
0.351418
0.349049
0.346269
0.343303
0.340022
0.33661
0.373807
0.371555
0.369518
0.36741
0.365614
0.363692
0.362042
0.360304
0.358594
0.356696
0.354349
0.351517
0.347641
0.343218
0.33772
0.331865
0.325121
0.318359
0.373588
0.371647
0.369752
0.367702
0.36603
0.364074
0.362536
0.360546
0.358547
0.35566
0.351812
0.346268
0.338887
0.329868
0.318871
0.306653
0.293073
0.279261
0.372721
0.37227
0.37107
0.369541
0.368098
0.366459
0.364609
0.362531
0.359076
0.354734
0.346965
0.336616
0.322266
0.304674
0.28403
0.261576
0.238783
0.217231
0.370691
0.376726
0.379482
0.380579
0.380682
0.379979
0.377732
0.375119
0.36982
0.364723
0.352317
0.338205
0.317685
0.292973
0.271693
0.241644
0.228781
0.226776
0.372847
0.417176
0.450354
0.474057
0.489991
0.502525
0.512933
0.52183
0.532127
0.541855
0.552935
0.562938
0.575175
0.585105
0.596965
0.60704
0.616211
0.626842
0.661751
1.20434
1.46127
1.57245
1.60908
1.60501
1.58658
1.55233
1.51378
1.47489
1.43775
1.40311
1.37139
1.34262
1.31625
1.29269
1.27082
1.25141
6.11635e-05
0.00106208
0.00340884
0.00787094
0.0140642
0.0215062
0.0296311
0.0372055
0.0445438
0.0517556
0.0594565
0.0680819
0.0785976
0.0902801
0.103949
0.118792
0.132472
0.140952
0.135428
0.148688
0.148121
0.165466
0.16926
0.187567
0.204881
0.226244
0.245904
0.266541
0.286888
0.30694
0.326823
0.346164
0.36556
0.384647
0.403953
0.42321
0.44291
0.462661
0.482478
0.502103
0.521698
0.540955
0.560003
0.578326
0.596212
0.613091
0.628086
0.642327
0.656057
0.666239
0.671028
0.687471
0.697485
0.697795
0.69017
0.679198
0.667985
0.648648
0.611412
0.563151
0.503631
0.442514
0.372696
0.315864
0.260023
0.219882
0.186706
0.169055
0.151055
0.169673
0.142294
0.151558
0.127579
0.0831071
0.0523643
0.0259245
0.0191988
0.0270408
0.0513976
0.0767142
0.0808053
0.0677704
0.0595878
0.0830863
0.113687
0.1688
0.283635
0.421738
0.525404
0.597022
0.654066
0.698812
0.734636
0.762334
0.783339
0.793309
0.807379
0.805992
0.815223
0.820778
0.826128
0.82059
0.81574
0.810745
0.80599
0.799334
0.794138
0.784201
0.773783
0.763782
0.750572
0.74078
0.728443
0.716382
0.704809
0.69397
0.677559
0.663285
0.647792
0.629395
0.615459
0.59634
0.581618
0.561031
0.545603
0.528704
0.509301
0.493329
0.47626
0.462306
0.447047
0.435112
0.421801
0.40995
0.397921
0.386914
0.376497
0.366904
0.358029
0.349751
0.341929
0.334804
0.328339
0.322375
0.315656
0.310518
0.308834
0.304653
0.305851
0.301084
0.301572
0.30159
0.300931
0.300825
0.30127
0.304968
0.305336
0.307594
0.310764
0.315352
0.320113
0.32579
0.332979
0.339388
0.344124
0.345253
0.346586
0.350393
0.351721
0.356143
0.357918
0.358488
0.358345
0.35661
0.354605
0.352751
0.35293
0.338754
0.340124
0.30928
0.000377481
0.00541342
0.013527
0.0237085
0.0351191
0.0472614
0.0593024
0.0710707
0.0823043
0.093239
0.10419
0.115106
0.126785
0.139896
0.155189
0.172287
0.191194
0.212
0.235297
0.263549
0.294727
0.33153
0.371462
0.415331
0.459599
0.505513
0.551416
0.597532
0.643303
0.688013
0.732192
0.775878
0.819093
0.862076
0.905101
0.948156
0.991476
1.03523
1.07994
1.12546
1.17201
1.21975
1.26807
1.31574
1.36213
1.40624
1.44726
1.4839
1.51504
1.53804
1.55558
1.56834
1.56837
1.55814
1.53853
1.50918
1.46977
1.42035
1.36247
1.29957
1.22204
1.10458
0.960187
0.802034
0.637079
0.484474
0.357739
0.266483
0.218499
0.184677
0.166499
0.149017
0.12253
0.0939159
0.0741856
0.0652437
0.0685892
0.103328
0.157815
0.193502
0.194624
0.203315
0.21528
0.47789
0.670004
0.699929
0.754677
0.818946
0.881709
0.937777
1.00054
1.06342
1.12682
1.1857
1.23707
1.27682
1.30407
1.31465
1.33926
1.34343
1.35724
1.3703
1.38953
1.38797
1.42653
1.42822
1.42765
1.41701
1.37992
1.38241
1.3824
1.40943
1.40212
1.38888
1.34131
1.37908
1.32245
1.31313
1.29051
1.26786
1.25273
1.25501
1.22725
1.15073
1.15697
1.12612
1.04712
1.04592
0.972392
0.964379
0.902179
0.888188
0.862794
0.841299
0.819196
0.79881
0.780036
0.762891
0.747372
0.733524
0.720956
0.709551
0.702754
0.698097
0.69562
0.688754
0.690088
0.692028
0.697768
0.70271
0.713928
0.730208
0.736011
0.745382
0.75603
0.7679
0.780861
0.79577
0.814039
0.831899
0.849428
0.865997
0.881019
0.89175
0.900799
0.90105
0.901335
0.907448
0.901177
0.90619
0.905253
0.89873
0.889817
0.874486
0.860275
0.836768
0.820917
0.787573
0.771294
0.71984
0.000987422
0.013699
0.034269
0.0541946
0.076174
0.0981755
0.119164
0.138834
0.157201
0.174309
0.190623
0.20715
0.225152
0.245696
0.269624
0.297138
0.328418
0.363374
0.402027
0.444259
0.489473
0.537165
0.58662
0.637096
0.687978
0.738881
0.789456
0.839509
0.888813
0.937568
0.985883
1.03402
1.08226
1.1309
1.18032
1.23072
1.28232
1.33522
1.38951
1.44501
1.5015
1.5585
1.61536
1.67118
1.72499
1.77563
1.82198
1.86237
1.89523
1.91633
1.93515
1.9419
1.93648
1.91965
1.89205
1.85361
1.80393
1.74305
1.67155
1.58985
1.49995
1.40337
1.30412
1.18236
1.025
0.845666
0.660636
0.487621
0.346981
0.256578
0.199555
0.161954
0.134697
0.111583
0.0940008
0.0875737
0.0970363
0.145184
0.21005
0.291395
0.440073
0.734252
0.897187
0.960969
1.01277
1.05852
1.15426
1.26169
1.37748
1.49154
1.59915
1.69564
1.77904
1.85025
1.90784
1.95519
1.99205
2.02222
2.04752
2.06602
2.08334
2.09627
2.10564
2.10981
2.11898
2.12313
2.12553
2.12325
2.11874
2.11569
2.11126
2.10763
2.09905
2.08763
2.07289
2.05889
2.03379
2.01059
1.98176
1.94926
1.91519
1.87737
1.8341
1.78514
1.74076
1.68945
1.63409
1.58389
1.52732
1.47682
1.42199
1.37306
1.32344
1.27625
1.23082
1.18814
1.1487
1.11265
1.07977
1.0503
1.02434
1.00239
0.984671
0.969795
0.957962
0.950244
0.946326
0.945033
0.951453
0.95366
0.959481
0.966577
0.973084
0.981846
0.992978
1.00596
1.02005
1.03563
1.05328
1.07009
1.08405
1.09573
1.1045
1.11195
1.11878
1.11742
1.11685
1.11715
1.11521
1.11824
1.11484
1.1051
1.0928
1.07401
1.0561
1.02841
1.00783
0.969089
0.94895
0.897412
0.00257633
0.031371
0.0673545
0.0985024
0.129636
0.159503
0.187511
0.213328
0.236916
0.25844
0.278415
0.297691
0.317471
0.339056
0.363778
0.392619
0.426233
0.464735
0.507939
0.555318
0.606204
0.659805
0.715395
0.772167
0.829567
0.886974
0.944082
1.00044
1.05598
1.11067
1.16467
1.2182
1.2716
1.32518
1.37934
1.43432
1.49035
1.54749
1.60575
1.66489
1.72457
1.78422
1.84314
1.90039
1.95497
2.0057
2.05137
2.09054
2.12089
2.1412
2.1591
2.16367
2.15591
2.13548
2.10253
2.05723
1.99951
1.92997
1.84931
1.7586
1.65942
1.55432
1.4454
1.33509
1.22332
1.08998
0.924657
0.740798
0.555403
0.396363
0.279771
0.207329
0.162138
0.131749
0.112718
0.110071
0.140563
0.238906
0.417768
0.730039
1.07156
1.12589
1.16808
1.21898
1.29895
1.41231
1.55057
1.69507
1.83462
1.96363
2.07971
2.18222
2.27091
2.34952
2.41584
2.47505
2.52603
2.57173
2.612
2.6477
2.67958
2.70766
2.73391
2.75657
2.77949
2.7975
2.81497
2.8295
2.83588
2.83578
2.83945
2.83929
2.83482
2.82644
2.81308
2.7945
2.77048
2.74173
2.70773
2.66839
2.62422
2.57426
2.51949
2.46016
2.39737
2.32987
2.25903
2.18586
2.10959
2.03246
1.95355
1.87512
1.79681
1.72009
1.64577
1.57482
1.50785
1.44581
1.38862
1.33702
1.29161
1.25212
1.2185
1.19076
1.16759
1.1496
1.13631
1.12728
1.1221
1.11885
1.11788
1.11769
1.11894
1.12195
1.12669
1.1328
1.14032
1.14888
1.15845
1.16781
1.17582
1.18455
1.19116
1.19525
1.19939
1.19727
1.1961
1.19582
1.19527
1.19672
1.19355
1.18452
1.1744
1.15797
1.14237
1.11793
1.09818
1.06466
1.04318
0.998425
0.00423111
0.0492982
0.100189
0.142245
0.181384
0.217857
0.2516
0.282491
0.310547
0.335957
0.359233
0.381142
0.402773
0.4254
0.45046
0.479267
0.512907
0.551966
0.596571
0.646345
0.700638
0.758569
0.819248
0.881753
0.94529
1.00912
1.07268
1.13548
1.19726
1.25789
1.31742
1.376
1.43394
1.49154
1.54914
1.60702
1.6654
1.72433
1.78379
1.84356
1.9033
1.96243
2.02027
2.07593
2.12844
2.17671
2.21967
2.25626
2.28235
2.30232
2.31947
2.32127
2.31073
2.28845
2.25394
2.20618
2.14512
2.07107
1.98471
1.88794
1.78177
1.66826
1.55012
1.43105
1.31332
1.19826
1.08328
0.92905
0.752142
0.57258
0.415608
0.29788
0.221363
0.174769
0.147482
0.153172
0.235786
0.439121
0.978337
1.27919
1.28549
1.28699
1.34052
1.43449
1.55873
1.70635
1.8674
2.02651
2.17568
2.31269
2.43641
2.54735
2.64602
2.73513
2.81437
2.88686
2.95231
3.01241
3.06747
3.11826
3.1654
3.20908
3.24955
3.28709
3.32196
3.35285
3.38104
3.40531
3.42482
3.43976
3.44984
3.45679
3.45835
3.4554
3.44632
3.43152
3.41047
3.38253
3.34824
3.30713
3.26017
3.20682
3.14745
3.08233
3.01166
2.93535
2.85394
2.76773
2.67685
2.58231
2.48447
2.38428
2.28238
2.17991
2.07805
1.9781
1.88128
1.78923
1.70263
1.62273
1.55071
1.4862
1.42962
1.38096
1.33956
1.30525
1.27661
1.25317
1.23322
1.21724
1.20303
1.19084
1.18397
1.17937
1.17664
1.17509
1.1751
1.17601
1.17871
1.18227
1.18618
1.18961
1.19267
1.19243
1.1937
1.19479
1.19282
1.19375
1.19278
1.19359
1.19301
1.18864
1.1825
1.17034
1.15931
1.14065
1.1243
1.09951
1.0787
1.04921
0.00590183
0.0665504
0.131972
0.184475
0.231186
0.27376
0.312653
0.34797
0.379886
0.408736
0.435102
0.459768
0.483772
0.508324
0.534809
0.564588
0.598898
0.638602
0.684143
0.735431
0.792002
0.853053
0.917645
0.984724
1.05332
1.1225
1.19149
1.25964
1.3265
1.39182
1.45554
1.51773
1.57866
1.63859
1.69787
1.7568
1.81563
1.8745
1.93347
1.99243
2.05114
2.10916
2.16591
2.22061
2.27234
2.32003
2.36246
2.39917
2.42476
2.44581
2.46435
2.46689
2.45659
2.43344
2.39741
2.34837
2.28618
2.21016
2.12042
2.01766
1.90465
1.78328
1.65555
1.52453
1.39463
1.27009
1.15248
1.03591
0.893263
0.726775
0.561246
0.415494
0.302982
0.235663
0.213418
0.255619
0.484037
1.06168
1.41493
1.40448
1.36527
1.40122
1.49357
1.61614
1.76201
1.92872
2.10543
2.27537
2.4347
2.58197
2.71583
2.83714
2.94695
3.04732
3.13908
3.22355
3.30133
3.3735
3.44071
3.50343
3.56227
3.61742
3.66912
3.71738
3.76222
3.80359
3.84108
3.8742
3.90293
3.92743
3.94718
3.9586
3.96594
3.97018
3.96638
3.95638
3.9393
3.91487
3.88291
3.84396
3.79852
3.74662
3.68761
3.62151
3.54835
3.46825
3.38149
3.28826
3.18877
3.08354
2.97302
2.85804
2.73927
2.61768
2.49434
2.37058
2.24791
2.12801
2.0121
1.90192
1.79901
1.70423
1.61857
1.54248
1.47554
1.41779
1.36578
1.32014
1.28507
1.25586
1.23041
1.20923
1.18835
1.16983
1.15293
1.13669
1.1232
1.11144
1.10328
1.09839
1.09469
1.09543
1.09573
1.09437
1.09651
1.09705
1.09586
1.09631
1.10058
1.10289
1.10872
1.11112
1.1136
1.11022
1.10795
1.09955
1.08961
1.07825
1.06211
1.04759
0.00795801
0.0845669
0.163735
0.226563
0.280831
0.329199
0.37267
0.411733
0.446858
0.478592
0.507652
0.534889
0.561338
0.588168
0.61669
0.648211
0.683963
0.724901
0.771625
0.82425
0.882498
0.945682
1.01289
1.08303
1.155
1.22771
1.30023
1.37175
1.44171
1.50972
1.57566
1.63958
1.70169
1.76231
1.82185
1.88068
1.93919
1.99763
2.05623
2.11504
2.17402
2.23292
2.2913
2.34848
2.40359
2.45555
2.50306
2.54519
2.57845
2.60203
2.62565
2.63499
2.63002
2.60996
2.57498
2.52521
2.461
2.38213
2.28823
2.1798
2.05813
1.92629
1.78685
1.64234
1.49647
1.35464
1.22168
1.09847
0.979386
0.845007
0.688317
0.530164
0.397209
0.316797
0.315728
0.479421
1.06033
1.45569
1.50208
1.44288
1.43009
1.5029
1.61791
1.76094
1.93139
2.12386
2.31555
2.49733
2.66677
2.82312
2.96624
3.09706
3.21669
3.32643
3.42737
3.52061
3.60702
3.68746
3.7627
3.83326
3.89969
3.96228
4.02138
4.07674
4.12856
4.17667
4.22091
4.26061
4.29592
4.32654
4.3515
4.3711
4.38115
4.38909
4.3896
4.38332
4.36966
4.34824
4.31965
4.28458
4.24208
4.19194
4.13386
4.06773
3.9935
3.91125
3.82109
3.72315
3.61758
3.50472
3.38497
3.25903
3.1275
2.99124
2.85116
2.7085
2.56469
2.42136
2.28004
2.14249
2.01063
1.88594
1.77027
1.66476
1.56942
1.47894
1.4072
1.34806
1.2912
1.24158
1.1981
1.1565
1.11824
1.08408
1.05398
1.02692
1.00527
0.987057
0.973233
0.963677
0.959488
0.95833
0.957679
0.957325
0.957861
0.958477
0.957926
0.959991
0.966059
0.971442
0.980517
0.987741
0.99751
1.00327
1.01344
1.01372
1.0104
1.01449
1.00532
1.00317
0.0107512
0.104715
0.196914
0.269562
0.330839
0.384373
0.431767
0.473946
0.511692
0.545775
0.577064
0.606506
0.635163
0.664175
0.694788
0.728223
0.765638
0.807952
0.855799
0.90939
0.968547
1.03269
1.10096
1.17229
1.24553
1.31955
1.39332
1.46595
1.53683
1.60552
1.67189
1.73599
1.79811
1.85862
1.91804
1.97686
2.03562
2.09473
2.15457
2.21533
2.27716
2.33997
2.40347
2.4671
2.53004
2.59117
2.64918
2.70229
2.74937
2.78309
2.81062
2.83549
2.84212
2.83011
2.79994
2.75246
2.6871
2.6039
2.50414
2.3885
2.25774
2.11313
1.95869
1.79778
1.63412
1.47199
1.31728
1.17473
1.04463
0.922411
0.787549
0.629586
0.494595
0.436096
0.533886
0.956595
1.48422
1.62508
1.5281
1.46385
1.50108
1.60262
1.739
1.90266
2.09534
2.30212
2.50364
2.69415
2.87181
3.03636
3.18792
3.32731
3.45543
3.57341
3.68222
3.78288
3.87625
3.96319
4.04444
4.12062
4.19225
4.25974
4.32332
4.38309
4.43913
4.49125
4.53922
4.58274
4.62164
4.65566
4.68438
4.70776
4.72242
4.73083
4.7347
4.73144
4.72081
4.70303
4.67865
4.64688
4.60713
4.55915
4.50267
4.43745
4.36338
4.28038
4.18845
4.08762
3.97796
3.85968
3.73308
3.5987
3.45711
3.30897
3.15505
2.99636
2.83419
2.67023
2.50599
2.34309
2.18409
2.03024
1.88473
1.74516
1.61945
1.51209
1.41265
1.32517
1.24197
1.16939
1.10667
1.05185
1.00496
0.964987
0.931119
0.901836
0.87972
0.86166
0.847492
0.837233
0.831371
0.828427
0.826962
0.827743
0.827544
0.828347
0.831255
0.835678
0.842011
0.848906
0.858419
0.867736
0.879029
0.889216
0.899036
0.909979
0.916833
0.929608
0.934418
0.936709
0.0144824
0.127326
0.23193
0.313196
0.380478
0.438313
0.488895
0.533559
0.573379
0.609335
0.642438
0.673714
0.704239
0.735125
0.767542
0.802611
0.841381
0.884687
0.93312
0.986901
1.04591
1.10963
1.1773
1.2479
1.32034
1.39349
1.46637
1.5381
1.60808
1.67593
1.74156
1.80509
1.86686
1.92735
1.98717
2.04692
2.10722
2.16862
2.2316
2.29648
2.3635
2.43275
2.5041
2.57712
2.6511
2.72499
2.79744
2.86667
2.93046
2.98744
3.02664
3.06011
3.08936
3.09285
3.07428
3.03345
2.97004
2.8842
2.77707
2.65062
2.50674
2.34823
2.17738
1.99709
1.81245
1.62817
1.44993
1.28345
1.13201
0.996091
0.867503
0.710626
0.619632
0.619945
0.882495
1.34025
1.60009
1.62601
1.52296
1.50601
1.5794
1.70132
1.85314
2.03205
2.24247
2.45829
2.66713
2.86478
3.04973
3.22178
3.38107
3.52821
3.66393
3.78917
3.9048
4.01175
4.11083
4.20292
4.28873
4.36892
4.44401
4.51452
4.5807
4.64284
4.70092
4.75489
4.80442
4.84939
4.88957
4.9248
4.9547
4.979
4.99702
5.00616
5.01133
5.00985
5.00162
4.98726
4.96581
4.93677
4.89959
4.85398
4.7996
4.7361
4.66321
4.58073
4.48855
4.38653
4.27466
4.15297
4.02167
3.88113
3.73187
3.57421
3.40873
3.23608
3.0573
2.87439
2.68868
2.50117
2.31443
2.12921
1.94964
1.78388
1.63504
1.48814
1.35397
1.23869
1.14012
1.0591
0.991994
0.936089
0.89026
0.852015
0.820139
0.792992
0.773982
0.75757
0.745166
0.736089
0.730037
0.727556
0.727062
0.727562
0.728271
0.729845
0.732509
0.73655
0.742293
0.749526
0.758466
0.768284
0.779755
0.791793
0.803572
0.816868
0.826652
0.840787
0.847656
0.863893
0.0191431
0.151591
0.267504
0.355998
0.428179
0.489457
0.542569
0.589206
0.630686
0.668153
0.702726
0.735477
0.767478
0.799802
0.833543
0.869714
0.909246
0.952867
1.00109
1.0541
1.11181
1.17376
1.23929
1.30748
1.37738
1.44797
1.51836
1.58779
1.65576
1.72196
1.78639
1.84923
1.91089
1.9719
2.0329
2.09456
2.15754
2.22244
2.28983
2.36011
2.43365
2.51065
2.59123
2.67515
2.76193
2.85066
2.94007
3.02837
3.11334
3.1921
3.26299
3.31202
3.36023
3.3853
3.3859
3.35977
3.3056
3.22282
3.11182
2.9743
2.8137
2.63525
2.44482
2.24422
2.03469
1.8234
1.61907
1.42852
1.25008
1.08768
0.941977
0.799011
0.739462
0.862565
1.22651
1.51376
1.64115
1.60555
1.53042
1.55995
1.65713
1.79267
1.95611
2.14945
2.36926
2.59144
2.80634
3.01033
3.20205
3.38113
3.54763
3.70194
3.84463
3.97646
4.09823
4.21075
4.31479
4.41112
4.50053
4.58358
4.66089
4.73298
4.80028
4.86304
4.92141
4.97525
5.02439
5.06864
5.1079
5.14202
5.17082
5.19399
5.21163
5.22032
5.22476
5.22334
5.21637
5.20331
5.18341
5.15597
5.12061
5.07698
5.02465
4.96314
4.89195
4.81084
4.7195
4.61765
4.50505
4.38155
4.24718
4.10208
3.94672
3.78108
3.60536
3.41981
3.22535
3.02383
2.81389
2.59856
2.38379
2.17266
1.96978
1.76006
1.56451
1.39023
1.24075
1.11951
1.02095
0.944304
0.881931
0.831861
0.790736
0.7564
0.728276
0.704517
0.688607
0.67351
0.661924
0.653371
0.648165
0.648691
0.648978
0.649969
0.649914
0.651264
0.65362
0.65739
0.662702
0.669694
0.67838
0.688522
0.700134
0.712825
0.725891
0.740521
0.753443
0.768937
0.778943
0.795424
0.0244993
0.175992
0.30166
0.396057
0.472136
0.53614
0.591275
0.639518
0.682374
0.721109
0.756904
0.790839
0.82397
0.85732
0.891896
0.928602
0.968249
1.01146
1.05866
1.11002
1.16545
1.22459
1.28686
1.35152
1.41776
1.48476
1.55179
1.61823
1.68371
1.74802
1.81122
1.87355
1.93542
1.99737
2.06003
2.12405
2.19009
2.25878
2.33073
2.40648
2.48649
2.57115
2.66084
2.75567
2.85549
2.95975
3.06741
3.17686
3.28586
3.39147
3.48985
3.57854
3.64043
3.69649
3.72439
3.72148
3.68477
3.61266
3.50462
3.36156
3.18644
2.98519
2.76608
2.53839
2.30423
2.06505
1.82706
1.60408
1.3932
1.19963
1.02085
0.925186
0.91711
1.15388
1.45118
1.594
1.61357
1.57615
1.55602
1.61637
1.7281
1.87219
2.04396
2.24958
2.47543
2.7026
2.92285
3.13277
3.3309
3.5167
3.69007
3.85119
4.0005
4.13863
4.26624
4.38402
4.49265
4.59276
4.6851
4.77023
4.84885
4.92145
4.98861
5.05055
5.10759
5.15953
5.20629
5.24766
5.28367
5.31411
5.33922
5.35816
5.37154
5.37751
5.3786
5.37515
5.36622
5.3512
5.32978
5.30152
5.26607
5.22303
5.17195
5.1121
5.04256
4.96315
4.87316
4.77205
4.65931
4.53458
4.39757
4.2482
4.08729
3.91434
3.72862
3.52995
3.3183
3.09747
2.87074
2.63338
2.39418
2.13589
1.88153
1.64245
1.42943
1.25083
1.10571
0.994343
0.906262
0.840312
0.785815
0.743495
0.707742
0.678009
0.653124
0.631843
0.617907
0.60407
0.591606
0.583513
0.58272
0.583323
0.583565
0.58517
0.583429
0.585519
0.588242
0.59225
0.597623
0.604837
0.61358
0.624152
0.636178
0.649795
0.664381
0.680272
0.696017
0.712416
0.725779
0.742187
0.0300983
0.198854
0.332512
0.431576
0.510714
0.576885
0.633676
0.68329
0.727363
0.767233
0.804109
0.839058
0.873099
0.907191
0.942247
0.979064
1.01835
1.06062
1.10626
1.15541
1.20801
1.26378
1.32229
1.38292
1.44508
1.50812
1.57151
1.6348
1.69772
1.76016
1.82222
1.88414
1.9463
2.00916
2.07331
2.13933
2.20785
2.27949
2.35492
2.4348
2.51978
2.61049
2.70763
2.81171
2.92307
3.04181
3.16736
3.29855
3.43345
3.56905
3.70127
3.82485
3.93519
4.01393
4.07929
4.10963
4.10086
4.04944
3.95364
3.81305
3.62919
3.40704
3.15617
2.89144
2.62399
2.35238
2.07821
1.81489
1.56806
1.34485
1.15701
1.08608
1.13947
1.36399
1.53944
1.61509
1.60112
1.56896
1.58959
1.66906
1.78878
1.93782
2.11635
2.33151
2.5619
2.79329
3.01844
3.23396
3.43821
3.63043
3.81036
3.97805
4.13384
4.27815
4.41151
4.53441
4.64738
4.75103
4.84599
4.93287
5.01224
5.08467
5.15067
5.21065
5.26489
5.31332
5.35573
5.39209
5.42238
5.44624
5.46453
5.47481
5.47869
5.47682
5.47029
5.45895
5.44278
5.42165
5.39535
5.36347
5.3257
5.28154
5.23013
5.17053
5.10133
5.02298
4.93409
4.83384
4.72156
4.59661
4.45843
4.30668
4.14349
3.96635
3.7743
3.56668
3.3436
3.10877
2.85357
2.57104
2.27858
1.98702
1.71174
1.46776
1.26209
1.09909
0.972204
0.87852
0.804722
0.750287
0.705331
0.670597
0.63799
0.612866
0.588834
0.571554
0.558099
0.544387
0.532661
0.527435
0.526273
0.526548
0.527155
0.528838
0.528191
0.530492
0.533406
0.537871
0.543677
0.551521
0.560875
0.572341
0.58546
0.600353
0.616845
0.634437
0.652644
0.669666
0.685648
0.700996
0.0353784
0.218594
0.358471
0.461104
0.542603
0.610511
0.668708
0.719559
0.764792
0.805783
0.843739
0.879697
0.91462
0.949387
0.984816
1.02161
1.06037
1.10155
1.14548
1.1923
1.24201
1.29442
1.34925
1.40603
1.46424
1.52348
1.5834
1.64368
1.70415
1.76477
1.82569
1.88717
1.94927
2.01242
2.07715
2.14394
2.21333
2.2859
2.36249
2.44389
2.53092
2.62447
2.72558
2.83545
2.95518
3.08543
3.22636
3.37761
3.53817
3.70551
3.87506
4.04113
4.19644
4.3333
4.43331
4.50942
4.54155
4.52407
4.45334
4.32734
4.14553
3.91152
3.63505
3.32997
3.01189
2.69371
2.38029
2.07493
1.78825
1.52111
1.35323
1.28543
1.34184
1.49746
1.59681
1.62045
1.58711
1.58128
1.62579
1.71566
1.83907
1.99114
2.17709
2.39671
2.63009
2.86494
3.09444
3.31509
3.52501
3.72325
3.90941
4.08343
4.24552
4.39584
4.53476
4.66272
4.78009
4.88739
4.98502
5.07359
5.15349
5.22531
5.28948
5.34647
5.39668
5.44013
5.47628
5.50536
5.5273
5.53903
5.54374
5.54124
5.53288
5.52063
5.50385
5.48285
5.45782
5.42892
5.39603
5.35866
5.31551
5.26794
5.21449
5.1542
5.08702
5.00957
4.92187
4.82303
4.71212
4.58818
4.45037
4.2979
4.13126
3.94765
3.74519
3.52139
3.27554
2.99834
2.69789
2.38182
2.06472
1.76473
1.49674
1.27264
1.09271
0.956471
0.85291
0.778017
0.719147
0.676137
0.638809
0.608381
0.579035
0.55675
0.534298
0.520869
0.505948
0.49177
0.485863
0.474565
0.474661
0.476242
0.477987
0.480064
0.481852
0.484262
0.487622
0.492857
0.499394
0.508224
0.518617
0.531416
0.546232
0.562952
0.581772
0.601426
0.621624
0.639237
0.656352
0.670815
0.0397962
0.234049
0.378398
0.483612
0.566895
0.636204
0.695635
0.747671
0.794097
0.836306
0.875481
0.912613
0.948595
0.984222
1.02021
1.05717
1.09563
1.13597
1.17848
1.22333
1.27054
1.32005
1.37166
1.42511
1.48002
1.53599
1.59274
1.65018
1.70826
1.767
1.82648
1.88701
1.94826
2.0107
2.07467
2.14051
2.20854
2.27893
2.35365
2.43298
2.51794
2.60982
2.71017
2.82083
2.94338
3.07902
3.22994
3.3977
3.58215
3.78055
3.98859
4.2009
4.40896
4.60265
4.77088
4.89662
4.98478
5.01738
4.98834
4.8939
4.73171
4.502
4.21464
3.88065
3.51535
3.13878
2.77007
2.41724
2.0857
1.78414
1.58955
1.50107
1.51647
1.58419
1.63889
1.62366
1.59363
1.60631
1.66291
1.75636
1.87965
2.03241
2.2248
2.44627
2.68106
2.9182
3.15111
3.37605
3.59089
3.79451
3.98633
4.16616
4.33408
4.49025
4.63478
4.76793
4.88997
5.00115
5.1018
5.19215
5.27261
5.34357
5.40545
5.45844
5.50332
5.54002
5.5672
5.58386
5.59122
5.5895
5.58086
5.5648
5.54223
5.51362
5.48031
5.44329
5.40337
5.36107
5.31654
5.26963
5.21989
5.16697
5.10998
5.04785
4.97941
4.90286
4.81685
4.71996
4.61077
4.48778
4.34954
4.1945
4.0201
3.82469
3.60421
3.35159
3.06979
2.76123
2.43558
2.10808
1.79669
1.5162
1.27839
1.08865
0.941911
0.833664
0.752915
0.696175
0.649391
0.614711
0.582038
0.554656
0.528695
0.508395
0.487708
0.475242
0.459066
0.449925
0.443766
0.434301
0.432029
0.433528
0.436022
0.439185
0.44184
0.445315
0.449794
0.456047
0.463501
0.473642
0.48537
0.499916
0.517072
0.536796
0.558921
0.581067
0.602833
0.620975
0.637196
0.651626
0.0428882
0.244234
0.391536
0.49855
0.583155
0.653587
0.714115
0.767315
0.815014
0.858601
0.899225
0.937819
0.975202
1.01208
1.04906
1.08668
1.12536
1.16545
1.2072
1.25078
1.29626
1.34361
1.39276
1.44354
1.49574
1.54907
1.60329
1.65814
1.71374
1.7703
1.82777
1.88567
1.94472
2.00508
2.06683
2.13016
2.19527
2.26239
2.33225
2.40553
2.48331
2.5672
2.65922
2.76274
2.88113
3.01989
3.17685
3.35555
3.55505
3.77877
4.02436
4.28368
4.54767
4.80491
5.04219
5.24547
5.40005
5.4994
5.53005
5.4867
5.36528
5.16313
4.88442
4.54041
4.14414
3.71779
3.28677
2.87302
2.48465
2.1367
1.86516
1.72206
1.67071
1.6796
1.66567
1.63124
1.61707
1.63966
1.69996
1.79225
1.91332
2.06721
2.261
2.48148
2.71555
2.95329
3.18816
3.41609
3.63474
3.84268
4.03926
4.22421
4.39751
4.55916
4.70915
4.84749
4.97432
5.0896
5.19341
5.28563
5.3665
5.43616
5.49481
5.54197
5.57897
5.60534
5.62038
5.62433
5.61759
5.60046
5.57327
5.53724
5.49398
5.44491
5.39165
5.33572
5.27843
5.22066
5.16295
5.10535
5.04744
4.98848
4.92735
4.86278
4.7931
4.71638
4.63062
4.53389
4.42412
4.29906
4.15648
3.99392
3.80538
3.58858
3.34202
3.06401
2.75956
2.43831
2.11383
1.80083
1.51847
1.27596
1.08084
0.930069
0.81628
0.73457
0.674548
0.630163
0.591597
0.562597
0.532593
0.508541
0.485272
0.465901
0.44796
0.434508
0.421565
0.414322
0.409037
0.399239
0.397393
0.399597
0.402355
0.406093
0.409312
0.413849
0.419311
0.426326
0.434766
0.446382
0.461153
0.479648
0.501609
0.525195
0.550236
0.574449
0.597223
0.615569
0.630263
0.641605
0.0441996
0.247685
0.398758
0.507083
0.59247
0.66343
0.724779
0.779087
0.828148
0.873304
0.915644
0.956047
0.995257
1.03388
1.07244
1.11135
1.15098
1.1916
1.23344
1.27663
1.32126
1.36733
1.41483
1.46366
1.51373
1.56482
1.61675
1.66938
1.72271
1.77676
1.8315
1.88646
1.94167
1.9971
2.05354
2.11096
2.16941
2.22905
2.2904
2.35416
2.42159
2.49429
2.57452
2.66565
2.77236
2.89881
3.05042
3.23429
3.46167
3.71099
3.98367
4.28588
4.60552
4.9281
5.24003
5.52477
5.76558
5.94765
6.05463
6.08161
6.02187
5.87127
5.62828
5.30009
4.8977
4.43998
3.95631
3.47977
3.01891
2.58772
2.22224
1.97441
1.83697
1.74517
1.6927
1.66804
1.66554
1.69154
1.74852
1.83454
1.94906
2.09815
2.28698
2.5027
2.73348
2.96983
3.205
3.43461
3.65588
3.86724
4.0679
4.25753
4.43602
4.60324
4.75889
4.9028
5.03474
5.15439
5.26125
5.35467
5.43456
5.5012
5.55431
5.59438
5.62131
5.63549
5.63606
5.62275
5.59622
5.55737
5.50739
5.44808
5.38146
5.30973
5.23506
5.15946
5.08457
5.01153
4.94099
4.87301
4.80704
4.74201
4.6765
4.60892
4.53717
4.45877
4.37112
4.27164
4.15753
4.02532
3.87157
3.6931
3.48683
3.24969
2.98412
2.69416
2.38702
2.07432
1.77263
1.49563
1.25924
1.06537
0.914942
0.800617
0.717958
0.65756
0.611639
0.574668
0.542303
0.516502
0.489356
0.46804
0.446342
0.429391
0.415001
0.401937
0.39245
0.386634
0.37835
0.370423
0.370534
0.37322
0.375704
0.379884
0.383658
0.388831
0.395721
0.40474
0.416366
0.432544
0.451043
0.473034
0.49875
0.526506
0.555897
0.583108
0.606794
0.624367
0.636288
0.642849
0.0441626
0.247906
0.399602
0.50831
0.594154
0.665769
0.728137
0.783656
0.834162
0.88094
0.924943
0.967239
1.00851
1.04923
1.08984
1.13067
1.172
1.21402
1.25692
1.30078
1.34565
1.39156
1.43856
1.48663
1.5357
1.5856
1.63614
1.68717
1.73858
1.7904
1.84251
1.8947
1.94688
1.9985
2.04973
2.10077
2.1518
2.20268
2.25458
2.30811
2.36424
2.42455
2.49163
2.56919
2.66259
2.77825
2.92246
3.10096
3.31694
3.5776
3.89616
4.23282
4.5894
4.96722
5.34498
5.70582
6.0313
6.3007
6.49929
6.60473
6.61945
6.53697
6.3534
6.06964
5.69373
5.23976
4.7322
4.20965
3.68742
3.16463
2.67761
2.28702
2.01751
1.83987
1.76325
1.73034
1.72771
1.75299
1.80288
1.87709
1.98264
2.1274
2.30843
2.51715
2.74275
2.97582
3.20944