/*--------------------------------*- C++ -*----------------------------------*\
  =========                 |
  \\      /  F ield         | OpenFOAM: The Open Source CFD Toolbox
   \\    /   O peration     | Website:  https://openfoam.org
    \\  /    A nd           | Version:  13
     \\/     M anipulation  |
\*---------------------------------------------------------------------------*/
FoamFile
{
    format      ascii;
    class       volScalarField;
    location    "100";
    object      nut;
}
// * * * * * * * * * * * * * * * * * * * * * * * * * * * * * * * * * * * * * //

dimensions      [0 2 -1 0 0 0 0];

internalField   nonuniform List<scalar> 
12225
(
5.42281e-06
1.55703e-05
2.61509e-05
2.864e-05
4.01817e-05
3.49655e-05
3.96418e-05
2.91963e-05
2.02694e-05
3.1855e-05
2.43815e-05
2.02227e-05
1.80759e-05
1.64601e-05
2.47344e-05
3.52323e-05
2.69048e-05
3.05891e-05
0.000105777
5.117e-05
1.33745e-08
2.07276e-07
1.58521e-06
6.10704e-06
7.9823e-06
7.15302e-06
5.07294e-06
8.72207e-06
8.61229e-06
1.1257e-05
1.17379e-05
1.3693e-05
1.47169e-05
1.78412e-05
2.04446e-05
2.37081e-05
0.000336099
0.000381429
2.70991e-07
2.64555e-07
5.34582e-07
4.11812e-07
2.63256e-07
3.76624e-07
3.98704e-07
5.84383e-07
5.00467e-07
7.51777e-07
9.1258e-07
9.98839e-07
1.48435e-06
1.94817e-06
3.54113e-06
6.30855e-06
0.000242933
0.00230086
2.91942e-06
2.02876e-06
1.0436e-06
4.34512e-07
5.28544e-07
3.96144e-07
3.37106e-07
1.893e-07
1.9177e-07
1.50028e-07
1.49904e-07
3.42411e-07
3.59222e-07
9.35196e-07
9.82507e-07
1.17214e-06
0.000690507
0.000312721
3.25682e-05
8.38326e-06
5.47502e-06
2.49216e-06
2.32056e-06
1.12432e-06
1.42791e-06
9.86573e-07
1.08458e-06
1.20882e-06
1.16882e-06
2.35681e-06
2.63158e-06
3.28836e-06
5.52901e-06
7.75909e-06
0.000658507
0.000194262
0.000149873
9.73311e-05
0.00010467
5.94095e-05
1.35635e-05
1.85401e-05
1.10939e-05
8.48539e-06
7.90562e-06
8.7763e-06
1.05267e-05
1.604e-05
2.63336e-05
3.13777e-05
3.80096e-05
4.41248e-05
0.000989584
0.000340185
0.000361662
0.000326729
0.000218352
0.000215279
0.000175312
9.98098e-05
0.000108767
8.54553e-05
7.55024e-05
7.63998e-05
8.50876e-05
8.83944e-05
0.00010473
9.86903e-05
0.000101857
0.000110835
0.000893759
0.000796485
0.000832585
0.000610999
0.000645083
0.000515395
0.000421732
0.000357883
0.00031474
0.000245313
0.000221816
0.000211332
0.000208319
0.000208238
0.000217291
0.000223743
0.000233155
0.000235286
0.000912124
0.000817735
0.000817795
0.000782076
0.000708057
0.000589777
0.000525512
0.000479738
0.000455895
0.000415932
0.000405059
0.000397318
0.00038938
0.000389755
0.000400093
0.000385385
0.000390557
0.000388405
0.000869605
0.000852549
0.000844232
0.000824597
0.000798763
0.000744554
0.000697479
0.000664286
0.000641466
0.000618288
0.000605604
0.000592447
0.000590996
0.000572128
0.000574906
0.000570048
0.000564308
0.000554285
0.000853656
0.000855012
0.000845629
0.000840461
0.000833795
0.00081677
0.000794759
0.00077689
0.000765154
0.000748951
0.000740367
0.000730842
0.000723336
0.000717652
0.000715468
0.000708942
0.00070189
0.000692555
0.000851062
0.000852955
0.000850874
0.000848688
0.000845571
0.000839524
0.000832909
0.000824957
0.000818084
0.000811445
0.000805718
0.000799875
0.000796539
0.000788945
0.000786372
0.000782805
0.000778452
0.000772263
0.000851055
0.000851171
0.000850361
0.000849079
0.000847708
0.000845844
0.000843993
0.000841678
0.000839551
0.000837191
0.000834871
0.000832607
0.000829961
0.000827051
0.000824468
0.000821954
0.000819327
0.00081617
0.000851438
0.000850715
0.00084999
0.000849157
0.000848348
0.000847431
0.000846601
0.000845679
0.00084486
0.000843929
0.000843062
0.00084205
0.000841093
0.000839854
0.000838809
0.000837456
0.000836531
0.000835102
0.000851528
0.000850672
0.000849877
0.000849094
0.000848362
0.00084763
0.000846956
0.00084628
0.000845663
0.000845035
0.000844456
0.000843847
0.000843282
0.000842664
0.000842104
0.000841487
0.000840963
0.000840374
0.000851537
0.000850674
0.000849857
0.000849076
0.000848339
0.000847631
0.000846962
0.000846319
0.000845713
0.000845127
0.000844574
0.000844036
0.000843527
0.00084303
0.000842559
0.000842099
0.000841665
0.000841241
0.000851537
0.000850674
0.000849852
0.000849072
0.000848329
0.000847622
0.000846949
0.000846307
0.000845696
0.000845112
0.000844556
0.000844023
0.000843516
0.000843029
0.000842565
0.00084212
0.000841696
0.000841288
0.000851538
0.000850679
0.000849858
0.00084908
0.000848335
0.00084763
0.000846954
0.000846313
0.000845698
0.000845114
0.000844553
0.00084402
0.000843508
0.00084302
0.000842552
0.000842106
0.000841677
0.000841269
0.000851536
0.000850675
0.000849851
0.000849072
0.000848324
0.000847618
0.000846938
0.000846296
0.000845676
0.00084509
0.000844525
0.000843989
0.000843472
0.000842982
0.000842508
0.000842059
0.000841625
0.000841213
0.000851534
0.000850678
0.000849849
0.000849075
0.000848322
0.000847622
0.000846935
0.0008463
0.000845671
0.000845091
0.000844518
0.000843989
0.000843464
0.000842978
0.000842486
0.000842033
0.000841569
0.000841132
0.000851537
0.000850678
0.000849855
0.000849078
0.000848331
0.000847633
0.000846946
0.000846319
0.000845675
0.000845106
0.000844532
0.000844022
0.000843491
0.000842965
0.000842338
0.000841842
0.000841118
0.00084039
0.000851559
0.000850655
0.000849894
0.00084905
0.00084839
0.000847611
0.000847006
0.000846298
0.000845684
0.000845028
0.000844591
0.000844027
0.000843379
0.000842451
0.000840882
0.000841545
0.000838073
0.000835033
0.000851589
0.000850603
0.000849983
0.000848984
0.000848471
0.000847496
0.000846891
0.000845934
0.00084527
0.000844204
0.000843416
0.000843945
0.000840311
0.00083549
0.000828138
0.000819482
0.00080797
0.000795686
0.000851452
0.000850703
0.000850012
0.000848929
0.000847723
0.000846045
0.000843875
0.000842311
0.000840425
0.000837002
0.000831523
0.000824676
0.000811784
0.000796119
0.000774063
0.000749309
0.000719614
0.000689746
0.000850675
0.000850809
0.000849668
0.000844591
0.000838461
0.000830881
0.000822995
0.000814925
0.000803546
0.000791156
0.000770721
0.000747754
0.000713687
0.00068148
0.000639094
0.000596863
0.000547814
0.000504496
0.00084464
0.000849159
0.000831298
0.000807023
0.000780671
0.000752764
0.000729234
0.000705118
0.000673493
0.000644851
0.000604449
0.0005616
0.000514693
0.00047296
0.000426243
0.000379175
0.000335822
0.000294239
0.000770455
0.000806268
0.00071425
0.000634604
0.000575899
0.000522467
0.000480658
0.000444621
0.000405655
0.00037419
0.000334221
0.000299708
0.000261568
0.000229517
0.000196664
0.000169744
0.00014424
0.000124253
0.000449153
0.00047562
0.000347091
0.000280959
0.000235755
0.000204103
0.000180051
0.000163182
0.000147448
0.000135192
0.000120889
0.000108057
9.39576e-05
8.10218e-05
7.04002e-05
5.9501e-05
5.37335e-05
5.14117e-05
9.935e-05
8.04066e-05
6.95169e-05
6.30677e-05
5.86365e-05
5.6105e-05
5.4577e-05
5.38706e-05
5.38836e-05
5.43534e-05
5.507e-05
5.60597e-05
5.68652e-05
5.83329e-05
5.94735e-05
5.93902e-05
5.90288e-05
5.89366e-05
8.64735e-06
1.58928e-05
1.95124e-05
2.12705e-05
2.20513e-05
2.22738e-05
2.22847e-05
2.20546e-05
2.17395e-05
2.13948e-05
2.10518e-05
2.07238e-05
2.04194e-05
2.01421e-05
1.98858e-05
1.96591e-05
1.94475e-05
1.92623e-05
5.33562e-09
4.22427e-07
1.35464e-06
3.12511e-06
5.5792e-06
8.52384e-06
1.17336e-05
1.47197e-05
1.76069e-05
2.04388e-05
2.34583e-05
2.68363e-05
3.09523e-05
3.55193e-05
4.08579e-05
4.66471e-05
5.19685e-05
5.20713e-05
4.41924e-05
4.62458e-05
4.41438e-05
4.63831e-05
4.50434e-05
4.76741e-05
4.98361e-05
5.28466e-05
5.54159e-05
5.81896e-05
6.09109e-05
6.36023e-05
6.63093e-05
6.89704e-05
7.17388e-05
7.45831e-05
7.76502e-05
8.09132e-05
8.2774e-05
8.4441e-05
8.60814e-05
8.76639e-05
8.92375e-05
9.07651e-05
9.22716e-05
9.37059e-05
9.51345e-05
9.64037e-05
9.75194e-05
9.87119e-05
9.96137e-05
0.000100243
9.98941e-05
0.000102366
0.000104182
0.000104716
0.00010445
0.000104698
0.000105847
0.000106456
0.000105157
0.000102137
9.74139e-05
9.16286e-05
7.49696e-05
6.06168e-05
4.85028e-05
4.06543e-05
3.49809e-05
3.29245e-05
3.13393e-05
3.84979e-05
3.66684e-05
4.5442e-05
4.45782e-05
3.03646e-05
1.9102e-05
9.44198e-06
6.98122e-06
9.81687e-06
1.86289e-05
2.77591e-05
2.91909e-05
2.44411e-05
2.14537e-05
2.98632e-05
3.39304e-05
3.80794e-05
4.50119e-05
5.16711e-05
5.39606e-05
5.38919e-05
5.34586e-05
5.2775e-05
5.20238e-05
5.11979e-05
5.03284e-05
4.91077e-05
4.84343e-05
4.70885e-05
4.65785e-05
4.6031e-05
4.56245e-05
4.47578e-05
4.40598e-05
4.34697e-05
4.29968e-05
4.25195e-05
4.22037e-05
4.17154e-05
4.12777e-05
4.09337e-05
4.04843e-05
4.02831e-05
4.00039e-05
3.97961e-05
3.96701e-05
3.96384e-05
3.93315e-05
3.91883e-05
3.901e-05
3.86863e-05
3.86675e-05
3.83419e-05
3.83263e-05
3.79361e-05
3.78978e-05
3.77769e-05
3.74728e-05
3.7408e-05
3.72618e-05
3.73405e-05
3.73046e-05
3.75246e-05
3.76032e-05
3.77798e-05
3.79021e-05
3.80798e-05
3.82735e-05
3.85097e-05
3.87848e-05
3.90944e-05
3.943e-05
3.98333e-05
4.03202e-05
4.0893e-05
4.14106e-05
4.22118e-05
4.36106e-05
4.48412e-05
4.71288e-05
4.8837e-05
5.18303e-05
5.53522e-05
5.95458e-05
5.95185e-05
5.97065e-05
6.02106e-05
5.97694e-05
5.99205e-05
6.0002e-05
6.02969e-05
6.05669e-05
6.08627e-05
6.14428e-05
6.20791e-05
6.27313e-05
6.254e-05
6.26257e-05
6.28098e-05
6.25541e-05
6.31801e-05
6.17234e-05
5.61095e-05
5.15591e-05
4.76916e-05
4.44908e-05
4.18891e-05
3.99631e-05
3.69506e-05
3.58556e-05
3.23931e-05
3.29297e-08
2.79585e-06
9.22974e-06
1.6205e-05
2.42179e-05
3.28899e-05
4.14085e-05
5.04767e-05
5.82454e-05
6.62848e-05
7.32083e-05
7.98597e-05
8.65082e-05
9.37183e-05
0.000101876
0.000110646
0.00011972
0.000128671
0.000136868
0.000150601
0.000165381
0.000183772
0.000203219
0.000226595
0.000247641
0.000269844
0.000292123
0.000314784
0.000340881
0.000363671
0.000386
0.000411406
0.000432914
0.000454323
0.000474641
0.000493798
0.000511562
0.00052864
0.000546104
0.000563776
0.000581818
0.000600403
0.000619247
0.000637843
0.000655982
0.000673208
0.000689697
0.000705298
0.000716188
0.000725233
0.000733078
0.000744349
0.000753548
0.000757094
0.000754636
0.000748049
0.000737433
0.000722416
0.000710108
0.000702243
0.00069023
0.000649695
0.000585582
0.000498846
0.000386586
0.000278022
0.000179313
0.000138677
0.000108241
8.476e-05
7.42801e-05
6.5319e-05
5.38159e-05
4.29877e-05
3.55698e-05
3.35052e-05
3.72158e-05
5.89498e-05
9.19207e-05
0.000108027
0.000112101
0.000102744
5.9069e-05
8.64999e-05
9.88124e-05
0.000105697
0.000128871
0.000162219
0.000207935
0.000238305
0.000267914
0.000299448
0.000327594
0.000374232
0.000400659
0.00043889
0.000459428
0.000487011
0.000507816
0.000523329
0.00054126
0.000557639
0.000575642
0.00058305
0.000605634
0.000611282
0.000612965
0.000612363
0.000599868
0.000604555
0.000609351
0.000625053
0.000624944
0.000622578
0.000603865
0.000623858
0.000602297
0.000602467
0.000596181
0.000590125
0.000588483
0.000595188
0.000585013
0.000553815
0.000562303
0.000550664
0.000516673
0.000521459
0.000488036
0.00048839
0.000459647
0.000455708
0.000445844
0.000437488
0.000427833
0.000418776
0.000411042
0.000403112
0.000395756
0.000389012
0.00038251
0.000375248
0.000373422
0.000371737
0.000368595
0.000364919
0.000366627
0.000366598
0.00036591
0.000369133
0.000369999
0.000377936
0.000378136
0.000381018
0.000384878
0.000388185
0.000391273
0.000395718
0.000401215
0.00040504
0.000409152
0.000413246
0.000417488
0.000420732
0.000424481
0.00042318
0.000422648
0.000426087
0.000421883
0.000424584
0.000422879
0.00042164
0.000416402
0.000409225
0.000400892
0.00039133
0.000382209
0.000365313
0.000358119
0.000311193
8.61382e-08
7.67279e-06
3.20298e-05
5.47556e-05
7.89698e-05
0.000103332
0.000124715
0.000141627
0.000156897
0.000169431
0.000179261
0.000188424
0.000198678
0.000211692
0.000228435
0.000247915
0.000270421
0.000296021
0.000324648
0.000358419
0.000395177
0.000433232
0.000472876
0.000513474
0.000553685
0.000593938
0.000632549
0.000669935
0.000703845
0.000741519
0.00077676
0.000812089
0.000845179
0.000877399
0.000908732
0.000939519
0.00096951
0.000999073
0.00102839
0.00105731
0.00108574
0.00111351
0.00114031
0.00116577
0.00118942
0.00121061
0.00122959
0.00124541
0.00125717
0.00126291
0.00126937
0.00127079
0.00126902
0.00126353
0.00125359
0.0012396
0.00122139
0.00119879
0.00117286
0.00114386
0.00111332
0.00108247
0.00105112
0.000976088
0.000869843
0.000689115
0.000502394
0.000390862
0.000261643
0.000162973
0.000121305
9.75126e-05
7.75577e-05
6.39005e-05
5.56055e-05
5.67077e-05
6.5434e-05
9.50601e-05
0.000120528
0.000146986
0.00010091
0.000114498
0.000135327
0.000166526
0.000224565
0.000320514
0.000392453
0.000490103
0.000566625
0.000650265
0.000721692
0.000800762
0.000851691
0.000948552
0.000984167
0.0010588
0.00108684
0.00113321
0.00115867
0.00118341
0.00120423
0.00122088
0.00123407
0.00124266
0.00125343
0.00126067
0.00126605
0.00126822
0.00126894
0.00126879
0.00127136
0.00127188
0.00126849
0.00126376
0.00125508
0.00124441
0.00123545
0.00122703
0.00121553
0.00120221
0.00118753
0.0011711
0.00114949
0.00112504
0.00110355
0.00107657
0.00104792
0.00102264
0.000992013
0.000965698
0.000935587
0.000909407
0.000882415
0.000856298
0.000829638
0.000802778
0.000778189
0.000756391
0.000734932
0.000716732
0.000698474
0.000685941
0.000673907
0.000661337
0.000653721
0.000641564
0.000638585
0.00063329
0.000633624
0.000632355
0.000631254
0.000632633
0.000632734
0.000634098
0.000637263
0.000641064
0.000644908
0.000649686
0.000656969
0.000664864
0.000670565
0.000676047
0.000683579
0.000689355
0.000694782
0.000697695
0.000703576
0.000712472
0.00072132
0.000732115
0.000735157
0.000734308
0.000729673
0.000721299
0.000710116
0.000693646
0.000679517
0.000651224
0.00063605
0.000578728
2.24747e-07
1.74314e-05
7.40682e-05
0.000130268
0.000183013
0.000230957
0.00027236
0.000305766
0.000332604
0.000352352
0.000365798
0.000375043
0.000382775
0.00039196
0.000405254
0.000424387
0.000450386
0.000483441
0.000522976
0.000568774
0.000618731
0.000671716
0.000726773
0.000781796
0.000836407
0.000888841
0.00093965
0.000987496
0.0010327
0.0010747
0.00111328
0.00114938
0.00118298
0.0012147
0.00124484
0.00127371
0.00130135
0.00132776
0.0013534
0.00137815
0.00140193
0.00142456
0.00144583
0.00146544
0.00148303
0.00149816
0.00151058
0.00151981
0.00152459
0.001524
0.00152321
0.00144542
0.00138154
0.00133885
0.00130976
0.00129026
0.00128069
0.00128225
0.00129139
0.00130779
0.00129933
0.00126198
0.0012234
0.00118497
0.00114333
0.00104248
0.00087828
0.000668892
0.000462681
0.000292849
0.000216362
0.000154958
0.000117883
9.48541e-05
8.15132e-05
8.04539e-05
9.48622e-05
0.000135689
0.00016882
0.000127318
0.0001589
0.000203474
0.000284188
0.000413765
0.000538098
0.00064961
0.000767486
0.000899339
0.00101124
0.00112292
0.00121914
0.00131326
0.00137455
0.0014768
0.00152131
0.0015927
0.00163167
0.00167693
0.00171188
0.00174465
0.0017709
0.00179402
0.00181556
0.00183227
0.0018489
0.00186162
0.00187255
0.00188164
0.00187911
0.00188345
0.00188085
0.00188409
0.00187694
0.00187849
0.00186939
0.00185342
0.00184427
0.00182217
0.00180616
0.0017861
0.00176291
0.001736
0.00170516
0.00167102
0.00163399
0.00159319
0.00155093
0.00150655
0.00145919
0.00141219
0.00136326
0.00131485
0.00126609
0.00121782
0.00117082
0.00112513
0.00108003
0.00103855
0.000996941
0.000958201
0.000928953
0.00089951
0.000872476
0.000853486
0.000834222
0.000813324
0.000800489
0.000789638
0.000780646
0.00077295
0.000765891
0.000749286
0.000730723
0.00071379
0.000697613
0.000681924
0.00066782
0.000656893
0.000651193
0.000650524
0.000653297
0.000659981
0.000667859
0.000675491
0.000684616
0.000692199
0.000702196
0.000714775
0.000728562
0.00074473
0.000758561
0.000768791
0.000777804
0.000781738
0.000784835
0.000778835
0.000772254
0.000746855
0.000719572
0.000658067
3.69103e-07
2.59917e-05
0.000110783
0.000204858
0.000291304
0.000367647
0.000432557
0.00048777
0.000532687
0.000566518
0.000591433
0.000608789
0.000621175
0.000631845
0.000644274
0.000661538
0.000685906
0.000718523
0.000759327
0.000807529
0.000861309
0.000918707
0.000977734
0.00103635
0.00109304
0.00114656
0.00119632
0.00124184
0.00128315
0.00132034
0.00135392
0.00138371
0.00141088
0.00143606
0.00145965
0.00148203
0.00150336
0.00152367
0.00154306
0.00156166
0.00157941
0.00159614
0.00161161
0.00162556
0.00163766
0.00164757
0.00165496
0.00165959
0.00165897
0.00165636
0.00165392
0.00161296
0.00153737
0.00146215
0.00139509
0.00134541
0.00131066
0.00128838
0.00128013
0.00128672
0.00130228
0.00133092
0.0013034
0.00126619
0.00122682
0.00118728
0.00111299
0.00095495
0.000744786
0.000516919
0.00035815
0.000259797
0.000188018
0.000141205
0.000106894
0.000105272
0.000140636
0.000154493
0.000166642
0.000204551
0.000281704
0.000415899
0.000613523
0.000727071
0.00084457
0.000983511
0.00112611
0.00126876
0.00139649
0.00151785
0.00162376
0.00172285
0.00179867
0.00188676
0.00194434
0.00200951
0.00206007
0.00210498
0.00214492
0.002174
0.00220754
0.00223862
0.00226915
0.00228845
0.0023157
0.00232992
0.00234754
0.00236052
0.00236208
0.00237394
0.00237702
0.00237421
0.00237699
0.00237405
0.00236051
0.00235357
0.00234138
0.00232293
0.00229878
0.00227554
0.00224794
0.00221633
0.00218041
0.0021208
0.00205884
0.00199549
0.00193106
0.00186497
0.00179684
0.00172748
0.00165657
0.00158501
0.00151289
0.00144092
0.00136988
0.00130061
0.00123378
0.00117049
0.00111118
0.0010568
0.00100824
0.000965022
0.000926963
0.000893371
0.000863161
0.00083484
0.000807135
0.000780467
0.000753842
0.000729795
0.000706615
0.000683783
0.000663318
0.000643837
0.000625899
0.000610373
0.000598598
0.000591207
0.000588365
0.00058948
0.000593167
0.000598839
0.000606274
0.000613616
0.000622995
0.000633548
0.000643854
0.000657135
0.000670595
0.000686066
0.000701287
0.000714401
0.000726254
0.00073372
0.000740695
0.000740086
0.000737292
0.000721489
0.000702092
0.000662843
5.14849e-07
3.26749e-05
0.000137089
0.000260069
0.000373618
0.000474067
0.00056307
0.000639821
0.000704329
0.000756571
0.000797837
0.000829425
0.000853473
0.000872728
0.00089042
0.000909777
0.00093355
0.0009636
0.00100051
0.00104375
0.00109196
0.00114332
0.00119586
0.0012477
0.00129724
0.0013437
0.00138514
0.00142227
0.00145531
0.00148462
0.00151068
0.00153425
0.00155548
0.0015748
0.00159258
0.0016093
0.00162532
0.00164078
0.00165578
0.0016703
0.00168427
0.00169753
0.00170986
0.001721
0.00173064
0.00173845
0.00174399
0.0017474
0.00174523
0.00174275
0.00174166
0.00173242
0.00171659
0.00169603
0.00162872
0.00154504
0.00146542
0.00140075
0.00135328
0.00132335
0.00131145
0.00131298
0.00132932
0.00130518
0.00126547
0.00122995
0.00119333
0.00111565
0.000966741
0.000750326
0.000592247
0.000416826
0.000280028
0.000187454
0.000153297
0.000159661
0.00018395
0.000199643
0.000246514
0.000341705
0.000512373
0.000715385
0.000846134
0.000976481
0.00111103
0.00126303
0.00141834
0.00156748
0.00170378
0.00182994
0.00194116
0.00204283
0.00212706
0.0022067
0.00227395
0.00233771
0.00239224
0.00244216
0.00248707
0.00252669
0.00256386
0.00259715
0.00262788
0.00265251
0.00267752
0.00269796
0.00271937
0.00272868
0.00273813
0.00275047
0.0027553
0.00275538
0.00275709
0.00275892
0.0027431
0.002737
0.00272516
0.00270896
0.00268681
0.00266272
0.00262796
0.0025619
0.00249521
0.00242797
0.00235971
0.0022903
0.00221947
0.0021466
0.00207138
0.001994
0.00191442
0.00183297
0.00174976
0.00166515
0.00157968
0.00149415
0.0014097
0.00132756
0.00124873
0.0011745
0.00110572
0.00104229
0.000984777
0.000932461
0.000885314
0.000842286
0.000801263
0.00076211
0.000727537
0.000695502
0.000664533
0.000636083
0.000608881
0.000584721
0.000564431
0.000548043
0.000536409
0.000528517
0.0005248
0.000524829
0.000527145
0.00053327
0.000540634
0.000548311
0.000558594
0.000568891
0.00057937
0.00059167
0.000607085
0.000622113
0.00063965
0.000655208
0.000670858
0.000682327
0.000693341
0.000698162
0.000698953
0.000693077
0.000681341
0.000658022
6.9422e-07
3.89491e-05
0.000156478
0.000299618
0.00043591
0.000557976
0.000665524
0.000758919
0.000838701
0.000906124
0.000961665
0.00100693
0.00104333
0.00107305
0.0010986
0.00112249
0.00114672
0.00117504
0.00120819
0.00124423
0.00128328
0.00132433
0.00136606
0.00140708
0.00144632
0.00148312
0.00151697
0.00154724
0.00157357
0.00159644
0.00161631
0.00163378
0.00164946
0.00166385
0.00167735
0.00169021
0.00170264
0.0017148
0.00172679
0.00173863
0.00175027
0.00176161
0.00177248
0.00178265
0.00179184
0.0017997
0.0018058
0.00181004
0.00181061
0.00180763
0.00180828
0.00180347
0.00179145
0.00177459
0.00174755
0.0017184
0.00168382
0.0016438
0.00154728
0.00146482
0.0014014
0.00136167
0.00134155
0.0013407
0.00130556
0.00126398
0.00122437
0.00117284
0.00110048
0.000946195
0.000780064
0.000567135
0.000370175
0.000256144
0.000214725
0.000238462
0.000240187
0.000278382
0.000374745
0.000558352
0.00078083
0.000908472
0.00104477
0.00118517
0.00133745
0.00150712
0.00167372
0.00183033
0.00197139
0.00210202
0.00221481
0.00231741
0.00240846
0.00248978
0.00256015
0.00262467
0.00268184
0.00273329
0.00277935
0.00282055
0.00285772
0.0028905
0.00292076
0.00294701
0.00297017
0.00298986
0.00300821
0.00302127
0.00303218
0.00304226
0.00304827
0.00305119
0.00304906
0.00304849
0.00303628
0.00302892
0.00301683
0.00300129
0.00298156
0.00293509
0.00286602
0.00279788
0.00272997
0.002662
0.00259332
0.0025236
0.00245246
0.00237921
0.00230342
0.00222488
0.00214346
0.00205927
0.00197236
0.00188276
0.00179075
0.00169708
0.00160293
0.00150922
0.00141705
0.00132717
0.00124078
0.00115906
0.00108262
0.00101118
0.000944057
0.000877377
0.000819482
0.000766296
0.000713931
0.000665667
0.000622512
0.000584193
0.000551803
0.000525704
0.000505202
0.000489073
0.000478059
0.000470749
0.000467364
0.000467658
0.000471945
0.000478843
0.000487061
0.000496066
0.00050627
0.000517154
0.000528183
0.000541262
0.000557236
0.000573115
0.00059155
0.000608916
0.000628114
0.000644246
0.000662267
0.000672013
0.00067677
0.000681855
0.000676928
0.000663633
9.37883e-07
4.5702e-05
0.000174398
0.000332521
0.000485731
0.000624992
0.000748435
0.000856033
0.0009483
0.00102602
0.00109027
0.00114335
0.00118675
0.0012223
0.00125239
0.00127937
0.00130547
0.00133183
0.00135962
0.00138975
0.00142184
0.00145519
0.00148889
0.00152173
0.00155272
0.00158123
0.00160705
0.00163021
0.00165093
0.0016692
0.00168525
0.00169943
0.00171213
0.00172374
0.00173459
0.00174497
0.00175512
0.00176525
0.00177549
0.00178595
0.00179664
0.00180754
0.00181854
0.00182947
0.00184007
0.00184999
0.00185884
0.00186603
0.00187152
0.00187114
0.0018703
0.00187349
0.00186647
0.00185431
0.00182924
0.00180229
0.00176951
0.00173054
0.00168566
0.00163502
0.00157958
0.00149591
0.0014237
0.00137546
0.00135338
0.00131091
0.00126328
0.00121475
0.00115325
0.00106555
0.000912035
0.000700885
0.000485352
0.000355235
0.000342569
0.00028086
0.000326647
0.000412146
0.000568001
0.000816704
0.000944484
0.00107937
0.00122351
0.00137701
0.00154712
0.00172848
0.00189989
0.0020637
0.00220672
0.00234212
0.00245929
0.00256448
0.00265625
0.00273807
0.0028099
0.0028744
0.00293156
0.00298218
0.00302705
0.00306652
0.00310145
0.00313209
0.00315919
0.00318265
0.00320328
0.00322083
0.00323622
0.00324811
0.00325732
0.00326436
0.00326831
0.00326958
0.00326576
0.00325948
0.00324941
0.00323715
0.00322366
0.00320894
0.00317187
0.00310117
0.00303196
0.00296422
0.00289734
0.00283082
0.00276404
0.0026965
0.00262766
0.00255677
0.00248314
0.00240632
0.00232602
0.00224231
0.00215521
0.00206446
0.00196999
0.00187159
0.00177061
0.00166883
0.00156683
0.00146532
0.00136558
0.00126744
0.00117133
0.00107468
0.000981294
0.000894316
0.000810785
0.000735601
0.00066704
0.000609834
0.00056335
0.000525378
0.000495296
0.000471956
0.000454189
0.000440777
0.000432704
0.00042822
0.000426939
0.000428764
0.000433896
0.000441452
0.000450562
0.000461483
0.000472465
0.000484588
0.000498449
0.000513633
0.000530325
0.000547572
0.000566685
0.000585758
0.000606133
0.000625407
0.000643704
0.00066177
0.00067482
0.000688332
0.000695961
0.000687111
1.26338e-06
5.31735e-05
0.000192969
0.000363912
0.000531135
0.000683988
0.000819457
0.000937059
0.00103739
0.00112154
0.00119112
0.00124903
0.00129692
0.00133604
0.0013687
0.00139693
0.00142259
0.00144705
0.00147136
0.0014962
0.00152169
0.0015476
0.00157349
0.00159897
0.00162356
0.00164669
0.00166799
0.00168729
0.0017046
0.00171993
0.00173344
0.00174537
0.00175599
0.00176561
0.00177455
0.00178313
0.00179165
0.00180035
0.00180948
0.00181918
0.00182959
0.00184076
0.00185269
0.00186527
0.00187834
0.00189159
0.00190464
0.00191698
0.00192784
0.00193717
0.00193865
0.00194157
0.00194537
0.00194046
0.00192122
0.00189603
0.00186415
0.00182518
0.00177946
0.00172776
0.00167073
0.00160962
0.00154552
0.0014713
0.001391
0.00133931
0.00131432
0.00125871
0.00119316
0.00111656
0.000989459
0.000795484
0.000625565
0.000504414
0.000352487
0.00035834
0.000430181
0.000579865
0.000821862
0.000955947
0.00109074
0.00123292
0.00138549
0.00155121
0.00173701
0.00192593
0.00210261
0.00226669
0.00241672
0.00255126
0.00266997
0.00277545
0.00286778
0.0029492
0.00302052
0.00308343
0.00313844
0.00318612
0.00322807
0.00326411
0.00329502
0.00332131
0.0033436
0.00336287
0.003379
0.00339206
0.00340253
0.00341017
0.00341531
0.00341812
0.00341836
0.00341612
0.00341089
0.0034012
0.00338995
0.00337601
0.00336261
0.00333786
0.00326413
0.00319347
0.00312547
0.00305974
0.00299554
0.0029321
0.00286863
0.00280448
0.00273902
0.00267155
0.0026012
0.00252717
0.00244878
0.00236544
0.00227772
0.00218585
0.00208932
0.00198864
0.00188516
0.00177946
0.00167126
0.00156005
0.00144553
0.0013253
0.00120201
0.00108132
0.000966705
0.000854246
0.000753798
0.000670094
0.000601694
0.000548172
0.00050637
0.000473664
0.000448905
0.000430175
0.000416364
0.000406427
0.000402019
0.000400172
0.000401458
0.000405365
0.000411783
0.000421073
0.000432198
0.00044457
0.000457537
0.000471492
0.0004865
0.000502781
0.00052053
0.000539694
0.000560394
0.00058206
0.000605071
0.00062863
0.000651683
0.000675109
0.00069385
0.000712255
0.000725679
0.000730679
1.66996e-06
6.10759e-05
0.000211801
0.000394306
0.000573383
0.000737079
0.00088152
0.00100593
0.00111104
0.00119825
0.00126969
0.00132892
0.00137761
0.00141701
0.00144953
0.0014771
0.00150142
0.00152385
0.00154541
0.00156679
0.0015883
0.00160996
0.00163159
0.00165289
0.00167353
0.0016931
0.00171131
0.00172794
0.00174287
0.00175609
0.00176769
0.00177786
0.00178676
0.00179465
0.00180185
0.00180871
0.00181557
0.00182278
0.00183062
0.00183935
0.00184919
0.00186033
0.00187291
0.00188699
0.00190254
0.0019194
0.00193726
0.00195562
0.0019738
0.00199075
0.00200621
0.00201243
0.00202359
0.0020255
0.00201981
0.00199849
0.00196925
0.00193129
0.0018847
0.00183012
0.00176921
0.00170416
0.00163767
0.00156938
0.00147238
0.00134435
0.00126629
0.00121659
0.00120236
0.00113601
0.00100401
0.000824479
0.000668578
0.000451697
0.000415671
0.000452807
0.000578277
0.000792798
0.000962581
0.00108579
0.00122548
0.00137404
0.00153485
0.00171284
0.00190749
0.00209909
0.00227942
0.002447
0.00259683
0.00273097
0.00284933
0.00295346
0.00304411
0.0031229
0.003191
0.00324954
0.00330002
0.00334235
0.00338064
0.00341225
0.00343811
0.0034591
0.00347598
0.00348905
0.00349904
0.0035063
0.00351109
0.00351346
0.00351361
0.0035117
0.00350774
0.00350184
0.00349413
0.0034824
0.00346975
0.00345619
0.00342735
0.00335005
0.00327737
0.00320877
0.00314363
0.00308137
0.00302117
0.00296216
0.00290328
0.00284368
0.00278223
0.00271794
0.00265064
0.0025798
0.00250454
0.00242482
0.0023412
0.00225287
0.00215933
0.00206083
0.00195681
0.00184633
0.00172707
0.00159822
0.00146273
0.00132166
0.00117865
0.0010297
0.000892052
0.000772749
0.000674156
0.000597282
0.000537502
0.000493131
0.000458982
0.000433316
0.000414072
0.000399651
0.000389682
0.000383046
0.00038183
0.000382024
0.000384962
0.000390375
0.000398629
0.000411191
0.000424293
0.000438417
0.000452228
0.000467355
0.000483611
0.00050142
0.000521037
0.000542817
0.000566927
0.000593278
0.000621834
0.000652113
0.000682893
0.000714091
0.000741701
0.000766971
0.000787836
0.000796694
2.13721e-06
6.88776e-05
0.000229643
0.000422265
0.000611119
0.000783295
0.000934354
0.0010634
0.00117136
0.00125993
0.00133182
0.00139107
0.00143913
0.00147766
0.00150912
0.00153544
0.00155829
0.00157896
0.00159846
0.00161744
0.00163628
0.00165512
0.00167387
0.00169232
0.00171019
0.00172715
0.00174295
0.00175739
0.00177035
0.00178178
0.00179159
0.00180001
0.00180705
0.00181317
0.00181837
0.00182301
0.00182757
0.00183245
0.00183805
0.00184473
0.00185285
0.00186277
0.00187485
0.00188938
0.00190656
0.00192648
0.00194901
0.00197378
0.00200012
0.002027
0.0020529
0.00207709
0.00209036
0.00210614
0.00211066
0.0021043
0.00208069
0.00204611
0.00200047
0.00194395
0.00187852
0.00180721
0.00173441
0.00166239
0.00159192
0.00143416
0.00127649
0.00118012
0.00113317
0.00112934
0.000969074
0.000837538
0.000593472
0.000487033
0.000507221
0.000583828
0.00074934
0.000974561
0.00107508
0.00120425
0.00134741
0.0015008
0.00166838
0.00185685
0.00205548
0.00225044
0.0024339
0.00260086
0.00275027
0.002883
0.0029995
0.00310091
0.00318822
0.00326273
0.00332662
0.00338081
0.00342856
0.00346837
0.00350051
0.00352521
0.0035439
0.0035577
0.00356741
0.00357373
0.00357725
0.00357832
0.00357719
0.00357404
0.00356906
0.00356237
0.00355418
0.00354419
0.00353282
0.00351885
0.0035039
0.00343463
0.0033531
0.00327806
0.00320874
0.00314438
0.00308409
0.00302703
0.00297167
0.00291731
0.00286373
0.00281026
0.00275589
0.00270001
0.00264191
0.00258033
0.00251421
0.00244321
0.00236682
0.00228358
0.00219194
0.00208997
0.00197686
0.00185409
0.00172174
0.00157534
0.00141934
0.00124753
0.00107812
0.000921976
0.00078744
0.00067872
0.000593722
0.000530839
0.000483113
0.000449116
0.000422569
0.000403662
0.000389189
0.000378795
0.000371969
0.000367943
0.000369264
0.000371343
0.000374651
0.000381502
0.000393859
0.000407876
0.000422238
0.000438086
0.000451794
0.000468936
0.000487345
0.000507827
0.000530855
0.000557298
0.000587178
0.000620928
0.000658054
0.000698189
0.000739568
0.000780728
0.000818723
0.000850816
0.000879031
0.000889747
2.62564e-06
7.60046e-05
0.000245253
0.000446091
0.00064257
0.000821147
0.000977039
0.00110933
0.00121916
0.00130854
0.00138069
0.0014397
0.00148664
0.0015242
0.00155465
0.00157992
0.00160161
0.001621
0.00163901
0.0016563
0.00167322
0.00168994
0.00170644
0.00172257
0.00173797
0.00175227
0.00176546
0.00177701
0.00178798
0.00179759
0.00180572