/*--------------------------------*- C++ -*----------------------------------*\
  =========                 |
  \\      /  F ield         | OpenFOAM: The Open Source CFD Toolbox
   \\    /   O peration     | Website:  https://openfoam.org
    \\  /    A nd           | Version:  13
     \\/     M anipulation  |
\*---------------------------------------------------------------------------*/
FoamFile
{
    format      ascii;
    class       volScalarField;
    location    "100";
    object      omega;
}
// * * * * * * * * * * * * * * * * * * * * * * * * * * * * * * * * * * * * * //

dimensions      [0 0 -1 0 0 0 0];

internalField   nonuniform List<scalar> 
12225
(
31477.7
31477.7
31477.7
31477.7
31477.7
31477.7
31477.7
41114.2
37295.4
31477.7
42671.8
41788.5
45510.5
39532.7
31477.7
31477.7
37655.1
31477.7
3610.41
8058.7
1.37426e+06
208829
56978.1
34551.7
24586.5
26273.6
25678.5
24135.9
23483.3
22276.7
22113.2
21257.4
20516.5
20041.7
19775.2
19405.7
1118.07
0.405685
263493
88358.3
29217.6
26377.2
23598.8
22897
15716.9
14215.1
16793.6
12213.7
12754.3
12885.9
12079.7
12275
10543.4
10341.9
1539.4
0.387599
68481.1
37423.1
29157.8
25035.1
16168.5
17029.9
16030.1
17959.2
11880.2
12497.3
13162.8
10578.8
10172.7
9635.78
9649.87
8816.5
543.807
1195
9138.84
19031
14294.7
16412.8
11031.8
14973.4
9809.1
12538.2
13614.9
13492.3
12772.4
11842.1
10761.2
9263.73
7757.35
6464.94
567.456
1899.38
2262.36
2933.04
1954.64
2568.56
7736.52
5232.56
8075.12
9700.94
9779.32
8890.28
7581
6183.8
5017.77
4103.43
3423.8
2965.61
377.517
1086.79
968.812
1022.86
1423.1
1355.06
1540.49
2541.03
2236.31
2781.2
2995.92
2927.07
2741.37
2552.01
2212.12
2338.21
2249.81
2011.93
417.863
465.314
435.431
581.802
537.759
659.709
788.51
911.238
1019.53
1293.17
1408.56
1456.97
1458.33
1431.28
1352.94
1285.14
1219.96
1183.31
409.687
453.795
448.163
463.621
506.301
601.461
667.865
725.102
755.628
821.503
835.063
842.191
849.503
837.087
806.671
824.632
806.823
799.802
429.902
435.816
436.511
443.482
454.277
483.913
512.88
535.195
550.538
567.538
575.326
583.527
580.27
593.878
586.427
585.777
588.065
593.443
437.915
434.638
436.605
436.542
437.315
443.852
453.545
461.554
466.146
473.712
476.573
479.96
482.089
482.797
481.531
482.887
485.409
489.104
439.238
435.659
434.126
432.746
431.922
432.73
433.932
435.994
437.57
439.073
440.119
441.186
440.931
442.963
442.395
442.291
442.998
444.586
439.245
436.54
434.423
432.661
431.049
429.798
428.64
427.817
426.981
426.311
425.675
425.019
424.62
424.351
424.028
423.665
423.542
423.649
439.051
436.761
434.606
432.63
430.761
429.057
427.416
425.918
424.463
423.135
421.853
420.694
419.578
418.643
417.691
416.93
416.052
415.448
439.005
436.777
434.654
432.651
430.744
428.948
427.231
425.613
424.061
422.6
421.197
419.882
418.618
417.445
416.31
415.264
414.235
413.292
439
436.774
434.658
432.65
430.742
428.93
427.206
425.568
424.007
422.523
421.108
419.762
418.478
417.257
416.091
414.982
413.921
412.911
439.001
436.772
434.656
432.646
430.737
428.921
427.195
425.553
423.989
422.5
421.082
419.73
418.441
417.213
416.04
414.922
413.853
412.836
439
436.768
434.651
432.638
430.728
428.909
427.181
425.535
423.97
422.478
421.057
419.702
418.41
417.178
416.002
414.881
413.809
412.787
439.001
436.77
434.655
432.641
430.732
428.913
427.186
425.538
423.973
422.478
421.057
419.699
418.407
417.172
415.995
414.87
413.797
412.773
439.003
436.77
434.658
432.643
430.738
428.916
427.192
425.542
423.98
422.483
421.063
419.702
418.41
417.172
415.999
414.874
413.81
412.792
439.001
436.773
434.659
432.65
430.741
428.922
427.199
425.547
423.994
422.492
421.073
419.702
418.411
417.184
416.065
414.938
413.972
413.055
438.992
436.788
434.645
432.674
430.724
428.952
427.188
425.583
424.013
422.561
421.07
419.719
418.451
417.365
416.613
414.789
415.003
415.021
438.981
436.816
434.614
432.719
430.705
429.038
427.276
425.806
424.256
423.01
421.644
419.668
419.679
420.246
421.975
424.342
428.145
432.408
439.058
436.76
434.634
432.756
431.139
429.811
428.857
427.697
426.727
426.606
427.367
428.755
432.896
438.439
447.34
458.16
472.506
488.02
439.424
436.708
434.898
435.016
436.054
437.718
439.908
442.132
446.264
450.854
459.763
470.097
487.105
503.636
528.435
556.016
593.488
631.044
442.305
437.665
444.789
455.628
468.866
483.65
497.146
511.328
532.369
551.539
582.037
616.573
658.425
697.454
748.097
808.737
872.705
949.097
483.767
461.72
519.523
582.318
639.172
701.402
758.563
815.371
885.178
948.005
1038.13
1123.15
1232.06
1327.46
1444.24
1541
1655.46
1748.29
825.312
792.073
1093.32
1354.57
1614.74
1861.7
2097.92
2298.78
2508.14
2697.82
2914.38
3129.87
3381.15
3615.97
3859.26
4061.17
4257.69
4410.98
3752.86
5188.33
6478.33
7516.65
8356.42
8956.87
9398.32
9686.74
9875.49
9969.11
10040.6
10041.8
10114.7
10030.4
10037.5
10063.7
10137
10228.8
21979.1
24478.6
25923.3
26609.1
26913.2
26855.8
26690.2
26406.4
26074.4
25737.6
25411.2
25101.9
24814.8
24549.9
24305.1
24081.9
23872.4
23684.5
11463.2
2514.24
2516.41
2518.61
2520.83
2523.07
2525.32
2527.6
2529.9
2532.22
2534.57
2536.93
2539.31
2541.72
2544.15
2546.6
2549.08
2551.57
3064.51
3215.16
3296.68
3253.17
3110.52
3356.54
3502.26
3694.94
3869.83
4043.13
4210.62
4370.23
4523.13
4668.92
4811.01
4948.51
5084.69
5219.52
5350.84
5479.1
5604.91
5727.59
5846.17
5959.95
6069.06
6171.72
6267.05
6359.62
6440.63
6507.08
6586.01
6646.23
6717.4
6715.82
6694.87
6663.71
6607.65
6487.23
6310.87
6093.14
5814.26
5513.7
5170.01
4829.43
4455.63
4165.67
3836.24
3619.3
3318.8
3338.43
3504.2
2720.11
3274.97
2728.46
2732.69
2736.97
2741.29
2745.66
2750.07
2754.53
2759.03
2763.57
2768.17
2772.81
2777.5
2782.24
3350.6
4432.84
5437.35
6067.25
6472.46
6769.52
7002.7
7187.39
7331.25
7445.15
7531.81
7593.15
7620.28
7672.3
7672.74
7694.72
7666.21
7648.72
7611.05
7580.35
7547.49
7516.36
7492.92
7454.31
7409.67
7365.25
7296.39
7243.05
7185.46
7124.52
7073.84
7012.53
6953.49
6878.64
6816.02
6716.25
6651.25
6548.31
6475.52
6389.3
6293.26
6212.37
6129.43
6032.23
5953.24
5875.04
5806.02
5736.42
5666.96
5601.71
5535.74
5473.9
5414.94
5360.5
5311.66
5264.95
5221.7
5180.4
5139.31
5103.18
5059.39
5027.04
5019.74
5012.27
5020.84
5041.08
5024.62
5043.51
5025.31
5054.31
5045.86
5065.02
5108.57
5133.37
5179.23
5229.98
5285.29
5352.87
5419.33
5467.02
5485.69
5520.51
5534.24
5578.63
5622.67
5636.95
5651.78
5658.58
5694
5662.21
5689.9
5631.43
5613.93
5623
5511.84
5383.89
11463.2
1936.23
1465.59
1463.04
1450.13
1436.96
1432.13
1407.99
1413.06
1406.64
1423.2
1441.35
1465.58
1492.73
1523.31
1557.1
1597.01
1647.61
1719.15
1749.98
1782.11
1804.03
1827.89
1832.92
1855.9
1873.35
1887.62
1898.23
1887.18
1891.86
1896.87
1885.92
1892.05
1897.5
1906.92
1920.13
1938.14
1958.29
1977.53
1996.29
2014.39
2031.55
2047.76
2062.79
2076.47
2088.87
2098.4
2103.94
2115.43
2120.75
2121.99
2106.99
2081.31
2058.05
2038.77
2017.49
1993.09
1966.11
1918.69
1850.6
1770.48
1700.15
1639.71
1607.78
1647.96
1742.57
1995.05
1921.6
2018.63
2178.83
2241.5
2281.38
2276.84
2184.72
2085.64
1947.27
1843.01
1752.81
1716.86
1791.24
1736.15
1758.42
2299.69
4411.91
4967.71
4924.1
4883.65
4560.33
4223.03
3935.19
3734.58
3551.27
3439.69
3168.35
3087.59
2909.2
2838.46
2699.42
2637.3
2567.09
2507.55
2457.33
2413.87
2380.54
2355.43
2336.44
2329.1
2314
2300.37
2286.65
2268.65
2254.89
2243.59
2230.86
2221.2
2210.57
2195.68
2179.59
2164.63
2148.46
2128.75
2108.6
2097.81
2077.83
2057.55
2045.02
2026.65
2005.75
1992.46
1974.61
1962.77
1949.03
1935.19
1923.02
1914.76
1907.49
1897.7
1892.5
1888.46
1885.61
1884.8
1890.88
1881.93
1877.93
1887.22
1887.42
1882.26
1887.7
1906.94
1903.68
1929.54
1932.1
1946.42
1956.29
1964.34
1978.18
1995.69
2010.95
2028.93
2053.87
2076.07
2095.6
2110.28
2119.52
2122.12
2129.23
2132.59
2129.72
2136.08
2134.3
2140.69
2131.51
2136.92
2136.93
2145.9
2138.27
2147.82
2155.89
2153.74
2313.17
11463.2
1785.4
1069.91
989.756
964.596
950.094
955.496
980.281
1001.94
1028.79
1063.38
1099.38
1133.25
1160.63
1180.31
1198.55
1214.47
1227.53
1238.35
1239.5
1238.62
1239.9
1240.54
1240.75
1242.54
1244.04
1248.06
1253.12
1262.8
1264.39
1269.22
1273.29
1280.51
1288.92
1298.87
1309.94
1322.65
1336.46
1351.15
1366.68
1382.93
1399.64
1416.6
1433.54
1450.27
1466.73
1481.78
1495.39
1507.53
1517.39
1524.5
1528.11
1525.96
1519.27
1509.3
1495.33
1476.95
1454.01
1425.19
1389.9
1347.27
1296.46
1240.7
1211.33
1178.38
1227.18
1314.98
1247.55
1326.16
1574.36
1645.07
1660.86
1736.73
1746.2
1690.5
1544.3
1482.96
1527.29
1742.76
1982.46
2348.34
3764.31
4087.12
4202.23
3768.45
3302.58
2941.15
2574.33
2431.03
2293.73
2215.83
2117.54
2088.83
1950.6
1938.53
1846.62
1832.88
1784.51
1767.12
1745.82
1730.02
1717.01
1706.26
1697.82
1690.54
1684.12
1678.87
1674.2
1669.69
1667.49
1660.63
1657.1
1654.76
1651.93
1651.59
1654.5
1646.19
1638.58
1630.37
1621.39
1612.75
1603.09
1595.58
1586.74
1577.42
1569.29
1559.37
1548.82
1539.62
1529.28
1519.89
1509.85
1499.79
1490.43
1483.57
1480.03
1476.12
1471
1469.21
1465.4
1466.54
1461.34
1461.14
1466.42
1465.4
1481.14
1481.91
1492.26
1501.61
1508.11
1519.96
1527.86
1537.9
1548.41
1558.19
1569.2
1581.7
1594.05
1603.24
1609.48
1611.01
1607.26
1600.35
1592.4
1581.9
1571.87
1560.74
1550.35
1538.9
1527.41
1516.46
1504.95
1497.65
1488.99
1487.22
1482.62
1483.16
1488.1
1491.94
1550.66
11463.2
1799.69
909.358
756.154
708.342
690.62
688.467
697.683
712.306
733.47
761.117
793.754
829.394
865.028
897.654
925.144
946.374
961.306
971.249
976.342
979.754
982.268
984.344
987.683
991.823
997.9
1004.72
1013.11
1022.54
1033.46
1046.16
1059.88
1074.91
1090.96
1108.05
1126.1
1145.23
1165.49
1186.46
1208.06
1230.15
1252.47
1274.8
1296.8
1318.22
1338.77
1358
1375.53
1391.12
1404.99
1417.47
1426.39
1431.37
1432.86
1429.92
1419.35
1402.62
1379.82
1351.19
1317.14
1277.13
1231.65
1181.46
1126.69
1069.96
1045.57
1052.8
1107.5
1200.4
1353.47
1293.07
1337.97
1375.42
1388.97
1382.82
1368.13
1481.76
1760.69
2071.27
3057.19
3640.16
3633.07
3052.8
2668.42
2413.97
2174.09
2020.33
1884.79
1814.23
1748.68
1705.88
1661.68
1652.11
1590.95
1588
1554
1548.13
1533.59
1525.81
1517.61
1513.12
1509.27
1505.82
1504.46
1503.32
1502.73
1503.28
1503.74
1509.16
1505.63
1509.67
1506.98
1510.34
1504.64
1504.82
1507.75
1502.21
1504.65
1499.17
1493.98
1488.57
1482.87
1477.57
1472.25
1467.19
1462.39
1456.57
1450.91
1445.73
1439.22
1433
1426.11
1419.18
1412.43
1405.66
1399.42
1396.12
1392.14
1392.88
1395.35
1390.4
1392.01
1396.6
1395.17
1399.61
1413.46
1419.51
1427.59
1437.4
1447.51
1459.58
1470.75
1481.78
1492.97
1501.57
1509.53
1514.94
1516.39
1513.15
1506.34
1494.52
1478.57
1459.84
1440.21
1419.56
1399.67
1378.54
1358.87
1337.71
1318.42
1299.94
1282.47
1272.26
1259.04
1255.96
1248.33
1248.85
1249.7
1247.31
1279.4
11463.2
1896.69
904.373
694.361
622.662
592.572
581.658
579.147
582.982
593.02
607.393
626.067
648.405
673.266
699.174
724.474
747.781
768.195
785.657
800.398
813.458
825.691
837.904
850.827
864.826
880.128
896.644
914.349
933.068
952.701
973.045
994.433
1016.34
1038.63
1061.31
1084.34
1107.79
1131.69
1156.01
1180.51
1205.07
1229.49
1253.57
1277.06
1299.68
1321.16
1341.22
1359.53
1375.76
1389.99
1402.41
1412.03
1418
1421.46
1421.28
1416.18
1404.85
1386.46
1360.57
1327.48
1287.93
1241.59
1189.29
1130.2
1070.51
1009.25
973.31
972.878
1009.88
1107.68
1160.43
1146.59
1177.35
1237.7
1379.71
1455.02
1676.57
2003.12
2999.3
3505
3053.95
2553.49
2184.95
1972.97
1845.6
1734.96
1658.28
1597.23
1557.97
1523.67
1500.47
1478.56
1471.1
1449.65
1447.47
1436.6
1433.11
1431.08
1430.11
1434.34
1433.9
1433.51
1432.06
1436.38
1434.54
1439.04
1440.25
1442.61
1449.92
1448.97
1451.33
1455.97
1454.93
1455.49
1459.99
1458.01
1456.61
1456.15
1456.53
1453.34
1450.29
1446.91
1443.52
1440.16
1437.04
1434.04
1429.95
1425.29
1423.46
1419
1415.09
1410.22
1405.59
1401.37
1397.69
1393.32
1392.1
1387.65
1385.86
1391.48
1390.38
1391.2
1394.64
1397.09
1401.2
1409.98
1420.66
1430.67
1442.08
1453.87
1467.37
1480.48
1491.92
1501.63
1506.94
1508.36
1505.52
1496.3
1480.85
1460.31
1436.3
1409.92
1382.32
1354.86
1327.26
1301.83
1274.6
1251.77
1224.89
1206.01
1186.73
1165.3
1165.41
1151.56
1138.18
1130.45
1121.47
1128.06
1123.4
1142.85
11463.2
2036.75
962.675
709.332
618.775
577.47
555.265
543.854
539.358
540.249
545.352
554.322
566.828
582.454
600.625
620.578
641.527
662.726
683.793
704.601
725.303
746.122
767.351
789.229
811.971
835.386
860.196
885.65
911.492
937.49
963.496
989.236
1014.9
1040.51
1066.12
1091.65
1117.1
1142.44
1167.71
1192.86
1217.82
1242.49
1266.72
1290.3
1313
1334.53
1354.62
1372.99
1389.36
1403.42
1414.95
1423.96
1431.08
1434.78
1437.38
1434.66
1427.32
1414.04
1393.39
1364.72
1327.75
1282.33
1229.15
1168.06
1102.06
1032.63
965.775
928.527
923.994
968.613
947.656
996.805
1081.97
1257.17
1392.18
1601.01
1929.31
2708.26
3169.77
2792.04
2271.9
1958.69
1765.16
1655.06
1585.93
1527.06
1484.44
1451.61
1429
1410.96
1399.08
1388.82
1385.46
1380.94
1380.45
1378.93
1380.01
1381.36
1383.44
1386.57
1389.42
1392.84
1396.23
1401.46
1405.12
1409.8
1412.49
1419.81
1425.4
1427.91
1432.58
1436.68
1438.45
1439.03
1445.95
1445.52
1445.53
1445.15
1445.17
1443.63
1441.98
1439.91
1437.61
1435.28
1433.02
1430.75
1427.66
1424.23
1421.02
1417.44
1414.51
1410.32
1406.23
1402.25
1399.07
1396.44
1393.85
1390.11
1389.21
1388.87
1387.21
1387.55
1388.97
1392.87
1399.04
1407.44
1417.21
1428.44
1440.52
1452.59
1463.34
1472.8
1476.98
1477.11
1471.08
1457.18
1436.89
1411.64
1382.73
1351.62
1319.56
1287.48
1256.21
1226.56
1197.9
1172.82
1144.81
1127.23
1100.05
1107.32
1092.83
1069.24
1052.37
1031.79
1039.11
1034.54
1027.48
1015.18
1017.3
1027.56
11463.2
2171.22
1046.38
756.173
644.239
589.989
559.965
542.526
532.797
528.175
527.889
531.208
538.023
548.126
561.342
577.476
596.45
616.918
638.663
662.457
687.687
714.082
741.471
769.697
798.575
827.788
857.124
886.581
916.202
945.68
974.851
1003.55
1031.66
1059.17
1086.15
1112.69
1138.93
1164.93
1190.78
1216.5
1242.11
1267.54
1292.71
1317.41
1341.41
1364.42
1386.12
1406.15
1424.08
1439.47
1452.02
1461.07
1468.1
1470.74
1473.48
1469.51
1461.56
1449.16
1431.37
1407.15
1375.02
1332.34
1279.88
1217.12
1146.23
1071.73
997.802
936.592
889.964
893.057
882.385
934.812
1073.03
1236.79
1470.38
1800.63
2322.47
2862.44
2645.36
2163.21
1831.51
1654.32
1548.58
1485.81
1444.08
1409.22
1383.48
1364.42
1352.74
1343.05
1339.28
1336.43
1335.58
1336.03
1338.74
1341.36
1344.98
1349.09
1353.8
1359.04
1364.62
1370.79
1376.83
1383.34
1390.01
1396.95
1403.13
1410.2
1416.78
1422.15
1427.53
1432.59
1436.89
1439.76
1445.72
1447.16
1448.43
1448.79
1448.79
1448.2
1447.57
1446.39
1444.79
1442.86
1440.6
1437.94
1434.56
1430.8
1426.87
1422.87
1419.1
1414.67
1410.23
1405.71
1401.47
1397.1
1391.91
1387.15
1382.62
1378.88
1376.42
1374.97
1373.82
1375.52
1379.37
1385.3
1392.56
1400.93
1408.69
1415.07
1416.4
1413.82
1403.3
1385.18
1360.35
1330.15
1296.52
1261.34
1225.69
1190.94
1157.3
1125.44
1095.81
1068.43
1042.93
1021.56
994.059
998.636
990.294
971.466
953.156
928.151
941.902
931.642
913.446
922.272
915.144
893.788
914.892
910.845
11463.2
2291.25
1129.1
810.661
681.115
615.004
576.893
553.654
539.589
531.935
529.286
530.465
535.213
543.382
554.769
569.202
586.485
606.646
629.439
654.354
681.195
709.66
739.453
770.362
802.162
834.506
867.003
899.241
930.883
961.847
992.07
1021.51
1050.21
1078.25
1105.76
1132.89
1159.81
1186.65
1213.5
1240.42
1267.46
1294.56
1321.65
1348.53
1374.97
1400.64
1425.18
1448.15
1469.06
1487.38
1502.77
1513.48
1522.73
1526.24
1530.66
1527.21
1518.56
1504.67
1485.56
1460.84
1429.33
1389.64
1339.99
1277.23
1203.24
1122.88
1042.75
967.055
905.818
865.665
863.507
898.273
1019.04
1227.63
1558.48
1961.29
2525.8
2528.01
2144.47
1792.39
1589.31
1484.77
1421.31
1381.74
1354.34
1331.87
1317.78
1305.49
1301.4
1296.41
1296.28
1297.46
1300.87
1305.08
1310.44
1316.06
1322.25
1328.95
1336.1
1343.74
1351.71
1360.03
1368.49
1377.18
1385.81
1394.44
1402.63
1410.9
1418.85
1426.21
1433.27
1439.87
1446.04
1451.41
1457.09
1461.61
1464.42
1465.6
1466.21
1465.29
1465.21
1464.4
1462.97
1460.92
1458.3
1455.01
1451.05
1446.58
1441.75
1436.62
1431.22
1425.51
1419.54
1413.33
1407.01
1400.71
1393.83
1386.77
1378.82
1371.42
1364.87
1359.08
1354.87
1352.85
1353.03
1354.73
1356.43
1357.3
1354.82
1346.79
1331.28
1309.22
1280.7
1247.85
1212.52
1176.23
1139.94
1104.55
1070.26
1038.06
1007.42
978.98
952.706
928.312
906.436
885.614
869.38
845.716
855.39
844.752
831.466
810.587
819.064
812.778
800.039
804.45
799.927
783.377
800.424
795.575
11463.2
2394.53
1201.9
860.637
716.35
640.82
596.609
569.397
552.712
543.3
539.357
539.391
543.01
550.226
560.781
574.552
591.442
611.373
634.191
659.606
687.332
717.003
748.207
780.437
813.233
846.238
879.122
911.578
943.38
974.421
1004.69
1034.22
1063.14
1091.61
1119.82
1147.93
1176.14
1204.55
1233.28
1262.37
1291.82
1321.6
1351.61
1381.63
1411.41
1440.58
1468.75
1495.41
1520.07
1542.17
1561.21
1576.1
1588.06
1593.88
1600.17
1599.9
1593.24
1580.23
1560.63
1534.13
1500.38
1458.87
1408.83
1348.42
1273.72
1188.93
1103.19
1019.66
948.748
892.11
876.745
893.326
990.515
1229.04
1583.83
2214.88
2371.99
2131.46
1807.28
1575.41
1448.01
1379.91
1337.54
1309.97
1290.99
1276.42
1268.49
1263.86
1261.93
1262.82
1266.34
1271.22
1277.62
1284.81
1292.75
1301.07
1309.83
1319.13
1328.57
1338.47
1348.7
1359.26
1369.99
1380.62
1391.22
1401.77
1412.01
1422.04
1431.66
1440.79
1449.44
1457.5
1465.02
1471.88
1478.29
1483.95
1487.42
1489.14
1490.75
1490.43
1490.43
1489.47
1487.59
1484.85
1481.32
1477.05
1472.08
1466.51
1460.47
1454.05
1447.3
1440.23
1432.84
1425.12
1417.01
1408.44
1399.32
1389.58
1379.21
1368.7
1358.4
1348.78
1340.33
1333.34
1326.91
1319.59
1309.55
1295.05
1274.93
1249.26
1217.93
1183.42
1147.27
1110.85
1074.96
1040.14
1006.64
974.814
944.388
916.209
889.368
864.922
842.037
821.103
801.975
784.457
768.75
753.844
742.126
725.027
732.44
725.805
712.879
703.679
691.601
700.534
694.007
698.314
700.308
698.905
11463.2
2482
1263
902.848
746.76
664.051
615.493
585.73
567.652
557.608
553.462
553.44
557.109
564.428
575.045
588.8
605.593
625.303
647.781
672.779
699.999
729.062
759.558
791.027
823.039
855.213
887.246
918.894
950.019
980.567
1010.58
1040.15
1069.47
1098.76
1128.23
1158.04
1188.35
1219.26
1250.85
1283.12
1316.06
1349.57
1383.53
1417.68
1451.71
1485.19
1517.65
1548.54
1577.34
1603.46
1626.45
1645.78
1660.53
1671.34
1676.35
1681.16
1678.6
1668.74
1651.1
1625.19
1590.37
1546.37
1492.87
1430.01
1355.49
1267.06
1178.1
1094.18
1019.29
957.46
938.218
969.11
1106.02
1354.23
1848.27
2159.66
2085.2
1828.6
1589.92
1436.7
1352.23
1304.67
1274.47
1254.9
1242.08
1234.56
1231.17
1230.21
1233.06
1238.07
1245.08
1253.43
1262.98
1273.32
1284.31
1295.8
1307.51
1319.77
1331.26
1343.27
1355.65
1368.27
1380.99
1393.8
1406.5
1418.95
1431
1442.63
1453.75
1464.25
1474.11
1483.22
1491.54
1499.06
1505.8
1511.3
1515.18
1517.79
1517.88
1518.49
1517.99
1516.35
1513.64
1509.92
1505.27
1499.83
1493.66
1486.81
1479.43
1471.61
1463.43
1454.92
1446.06
1436.79
1426.93
1416.41
1405.18
1393.17
1380.89
1367.47
1353.38
1338.78
1323.85
1308.04
1290.06
1268.54
1242.87
1212.35
1177.44
1139.89
1101.83
1064.35
1027.93
993.212
960.106
928.814
899.277
871.657
845.544
821.549
798.782
778.35
758.89
741.398
724.973
710.216
696.353
683.748
672.076
661.492
651.587
643.611
632.411
636.379
633.448
626.328
624.171
619.824
628.248
628.373
11463.2
2555.15
1313.6
937.935
772.576
684.468
632.816
601.387
582.55
572.341
568.322
568.512
572.546
580.188
591.006
604.777
621.354
640.584
662.304
686.286
712.257
739.877
768.791
798.617
829.009
859.657
890.322
920.817
951.058
981.052
1010.96
1040.85
1071.03
1101.59
1132.9
1165.13
1198.37
1232.66
1268.05
1304.52
1341.98
1380.28
1419.23
1458.51
1497.72
1536.35
1573.83
1609.53
1642.83
1673.15
1699.96
1722.86
1741.53
1755.1
1764.56
1768.51
1770.94
1765.63
1751.9
1729.24
1696.25
1651.82
1594.82
1526.95
1447.45
1358.89
1267.99
1184.9
1107.82
1062.25
1053.43
1104.65
1243.71
1530.42
1912.89
1984.41
1830.9
1617.3
1447.36
1342.22
1282.54
1247.46
1225.11
1211.5
1204.31
1200.92
1200.89
1204.52
1211.12
1219.81
1230.23
1241.95
1254.78
1268.45
1282.45
1296.74
1310.36
1324.19
1338.41
1353.17
1368.22
1383.32
1398.38
1413.24
1427.8
1441.89
1455.41
1468.27
1480.41
1491.73
1502.24
1511.81
1520.47
1528.2
1535.03
1540.53
1544.11
1545.45
1545.62
1545.44
1543.99
1541.3
1537.42
1532.42
1526.37
1519.3
1511.33
1502.67
1493.47
1483.86
1473.94
1463.76
1453.3
1442.52
1431.54
1419.96
1407.56
1394.3
1378.96
1361.66
1342.11
1320.3
1295.72
1267.74
1235.78
1199.69
1160.06
1117.55
1075.11
1034.61
996.505
960.737
927.117
895.964
866.782
839.52
814.418
791.233
769.517
749.836
731.616
715.032
699.134
684.624
670.759
658.277
645.84
634.747
624.269
614.628
605.957
597.942
591.358
583.542
585.66
583.282
581.818
578.909
579.502
582.924
11463.2
2616.34
1355.79
967.462
794.798
702.536
648.568
615.946
596.609
586.329
582.395
582.799
587.298
595.19
606.081
619.691
635.825
654.303
674.957
697.584
721.964
747.83
774.878
802.825
831.477
860.669
890.143
919.973
949.519
979.18
1009.14
1039.6
1070.74
1102.61
1136.3
1171.54
1208.33
1246.68
1286.57
1327.97
1370.75
1414.68
1459.49
1504.8
1550.12
1594.82
1638.2
1679.49
1717.91
1752.77
1783.5
1809.71
1831.22
1847.97
1859.3
1866.81
1868.85
1868.51
1859.22
1841.39
1812.87
1771.26
1713.68
1638.41
1552.6
1460.92
1368.5
1286.72
1220.56
1188.9
1194.82
1256.06
1415.26
1680.74
1833.01
1792.77
1636.59
1471.64
1349.8
1274.16
1229.6
1202.68
1186.09
1177.26
1173.54
1173.42
1177.19
1184.44
1194.45
1206.48
1220.16
1235.13
1251.15
1268.21
1283.84
1299.16
1315.64
1332.7
1350
1367.44
1384.85
1402.1
1419.09
1435.7
1451.82
1467.28
1481.94
1495.7
1508.5
1520.24
1530.94
1540.56
1549.08
1556.35
1562.35
1566.59
1568.74
1569.09
1568.38
1566.43
1563.17
1558.63
1552.86
1545.93
1537.95
1529.05
1519.45
1509.45
1499
1488.2
1477.18
1466.01
1454.68
1443.19
1430.99
1417.96
1403.51
1387.02
1367.77
1345.1
1317.79
1285.97
1249.2
1207.65
1162.54
1114.99
1066.28
1020.28
978.186
940.083
905.388
873.545
844.033
817.483
792.52
769.813
749.815
731.326
714.546
699.954
686.358
673.851
661.914
650.192
639.426
628.639
618.603
609.765
600.602
591.868
583.635
576.229
569.577
564.194
559.598
557.242
554.722
555.051
554.442
555.211
11463.2
2667.55
1391.55
992.894
814.328
718.702
662.847
629.235
609.463
599.086
595.208
595.821
600.502
608.464
619.243
632.505
648.017
665.581
685.037
706.219
728.975
753.139
778.545
804.971
832.242
860.465
888.466
916.41
945.167
974.856
1005.51
1037.3
1070.43
1104.23
1140.62
1179.13
1219.71
1262.34
1307.01
1353.65
1402.16
1452.27
1503.65
1555.88
1608.34
1660.28
1710.8
1758.88
1803.47
1843.62
1878.63
1908.08
1931.87
1950.19
1963.38
1971.71
1975.32
1976.55
1970.78
1957.73
1934.86
1899.26
1844.9
1770.25
1678.24
1577.51
1480.08
1397.33
1337.27
1315.14
1330.38
1391.04
1531.98
1679.02
1714.18
1631.07
1495.59
1370.56
1280.59
1223.44
1188.6
1167.4
1155.16
1149.46
1148.39
1151.39
1158.28
1168.62
1181.59
1196.57
1213.15
1230.94
1249.11
1267.27
1285.7
1304.45
1323.92
1343.67
1363.5
1383.29
1402.86
1422.09
1440.84
1459.01
1476.46
1493.03
1508.51
1522.8
1535.79
1547.51
1557.86
1566.75
1574.12
1579.2
1582.49
1583.82
1583.87
1582.42
1579.48
1575.8
1570.97
1564.92
1557.71
1549.42
1540.17
1530.09
1519.28
1507.91
1496.12
1484.05
1471.8
1459.45
1446.96
1434.01
1420.32
1405.25
1388.09
1367.69
1342.77
1312.41
1274.51
1230.4
1180.65
1127.23
1072.97
1020.11
971.934
929.405
892.093
858.99
829.259
802.317
777.763
756.193
735.813
719.304
705.142
691.94
680.858
670.34
661.274
651.718
642.226
632.394
625.185
616.198
608.365
601.233
592.945
584.862
577.026
569.846
563.501
558.113
553.469
550.198
546.939
544.708
542.313
541.419
11463.2
2710.66
1422.43
1015.38
831.838
733.319
675.784
641.238
621.002
610.437
606.526
607.237
611.964
619.866
630.42
643.248
658.09
674.745
693.069
712.936
734.264
756.984
781.052
806.396
832.917
860.341
887.435
915.751
944.528
974.359
1005.42
1037.86
1071.79
1108.15
1147.23
1188.85
1232.99
1279.68
1328.94
1380.76
1435.08
1491.71
1550.3
1610.37
1671.26
1732.01
1791.44
1848.13
1900.56
1947.33
1987.38
2020.17
2045.77
2064.67
2077.66
2085.34
2088.86
2089.77
2085.69
2076.1
2058.74
2029.89
1986.53
1922.1
1833.59
1727.11
1618.13
1521.98
1456.1
1431.13
1442.6
1501.41
1583.16
1630.79
1602.26
1508.22
1395.95
1299.77
1230.66
1185.39
1156.98
1139.77
1130.31
1126.85
1128.03
1133.35
1142.81
1155.61
1170.99
1188.37
1207.35
1227.48
1249.16
1268.34
1288.72
1310.25
1332.29
1354.54
1376.77
1398.78
1420.41
1441.48
1461.85
1481.35
1499.86
1517.15
1533.04
1547.32
1559.8
1570.2
1578.4
1584.47
1588.5
1590.3
1590.99
1590.43
1588.37
1584.85
1579.57
1573.66
1566.69
1558.7
1549.79
1540.02
1529.47
1518.2
1506.33
1493.96
1481.2
1468.19
1454.97
1441.57
1427.87
1413.42
1397.8
1379.89
1358.72
1332.54
1299.57
1259.38
1210.33
1154.67
1094.79
1034.8
977.827
928.418
886.276
850.357
819.362
792.129
767.783
746.462
727.088
710.522
697.591
687.358
677.019
668.618
662.424
655.752
648.814
642.303
634.274
627.706
621.924
614.662
609.512
603.469
596.24
589.219
581.907
574.962
568.75
563.13
557.954
553.344
548.306
544.515
540.171
536.669
11463.2
2747.47
1449.71
1035.7
847.852
746.732
687.624
652.158
631.422
620.598
616.593
617.365
622.101
629.923
640.264
652.714
666.998
682.915
700.346
719.208
739.477
761.167
784.355
809.019
835.049
862.015
889.451
917.308
946.071
976.158
1007.8
1041.31
1077.09
1115.59
1156.89
1200.99
1248.03
1298.12
1351.4
1407.97
1467.87
1531.11
1597.42
1666.36
1737.25
1808.94
1879.82
1947.86
2010.76
2066.3
2112.76
2149.3
2176.1
2194.28
2205.24
2210.27
2211.46
2209.71
2204.91
2196.63
2183.3
2161.84
2129.17
2079.55
2005.31
1905.35
1790.35
1679.61
1589.63
1540.33
1531.52
1551.4
1577.86
1568.73
1507.96
1422.29
1330.34
1253.08
1196.43
1158.14
1133.51
1118.62
1110.87
1109
1111.53
1118.52
1129.72
1144.25
1161.38
1180.52
1201.33
1223.5
1247.4
1268.15
1290.74
1314.53
1338.95
1363.57
1388.09
1412.23
1435.79
1458.51
1480.19
1500.64
1519.75
1537.2
1552.69
1565.51
1575.62
1582.89
1588.11
1591.09
1592.05
1590.27
1587.74
1583.83
1578.67
1572.39
1565.11
1556.96
1548.02
1538.39
1528.11
1517.2
1505.67
1493.56
1480.91
1467.79
1454.26
1440.44
1426.3
1411.76
1396.62
1380.03
1361.55
1339.34
1312.35
1278.94
1237.38
1187
1128.36
1064.51
1000.46
940.591
889.501
847.834
813.661
784.942
760.325
739.225
720.388
705.143
690.363
680.555
672.937
667.457
662.102
658.567
654.573
649.386
644.654
639.843
630.486
635.476
635.273
634.266
635.384
627.982
620.078
612.739
605.015
597.629
590.622
583.968
576.976
569.594
561.504
553.695
545.535
537.471
11463.7
2773.01
1472.06
1054.01
862.89
759.636
699.167
662.882
641.708
630.668
626.621
627.548
632.396
640.266
650.553
662.827
676.807
692.308
709.249
727.627
747.413
768.62
791.329
815.566
841.245
868.139
895.981
924.693
954.383
985.303
1017.87
1052.48
1089.43
1129.03
1171.53
1217.13
1266.06
1318.57
1374.94
1435.48
1500.47
1570.2
1644.76
1723.94
1807.07
1892.77
1978.98
2062.75
2140.42
2208.36
2263.65
2304.83
2332.12
2347.65
2354.03
2353.15
2348.32
2340.9
2332.18
2322.22
2310.02
2293.53
2269.19
2233.58
2179.02
2098.16
1992.28
1875.07
1763.68
1677.71
1630.39
1612.84
1590.77
1529.96
1470.5
1358.94
1280.43
1218.6
1172.15
1139.05
1116.85
1103.16
1096.17
1094.99
1097.94
1105.7
1117.81
1133.4
1151.71
1172.23
1194.77
1219.38
1244.09
1266.77
1291.19
1317.07
1343.83
1370.84
1397.59
1423.73
1448.94
1472.94
1495.41
1516.12
1534.84
1551.15
1564.61
1574.68
1581.6
1585.38
1586.82
1585.31
1582.15
1577.32
1571.08
1563.67
1555.31
1546.21
1536.48
1526.24
1515.55
1504.5
1493.1
1481.29
1469.02
1456.24
1442.93
1429.12
1414.82
1400.13
1384.83
1368.71
1351.49
1331.63
1308.97
1281.78
1248.51
1207.1
1156.01
1095.2
1028.53
961.77
901.199
851.241
811.191
779.633
753.736
732.072
714.062
698.779
686.083
676.205
670.98
666.71
662.002
656.574
658.138
656.429
652.504
646.663
647.401
645.378
645.41
646.37
647.92
649.52
655.793
655.951
653.061
649.329
643.405
636.789
629.458
621.267
611.282
599.61
586.633
572.787
559.668
545.512
11462.8
2795.55
1492.68
1071.4
878.083
773.314
711.961
675.288
654.098
643.262
639.616
641.167
646.598
655.035
665.84
678.572
692.98
708.867
726.104
744.621
764.441
785.668
808.506
833.098
859.455
887.4
916.678
947.102
978.648
1011.44
1045.66
1081.49
1119.38
1159.73
1202.92
1249.36
1299.46
1353.66
1412.43
1476.33
1545.92
1621.8
1704.5
1794.2
1890.55
1992.19
2096.45
2198.87
2294.26
2377.19
2442.83
2488.78
2514.62
2524.28
2522.96
2512.06
2496.09
2478.79
2462.01
2446.38
2431.37
2415.32
2395.44
2368.21
2329.26
2271.37
2188.98
2086.19
1971.71
1852.06
1749.47
1669.08
1613.87
1518.33
1455.96
1368.07
1284.47
1217.63
1167.7
1132.16
1108.17
1093.57
1086.62
1086.08
1089.41
1097.86
1110.86
1127.36
1146.5
1167.65
1190.22
1215.52
1242.9
1267.2
1293.33
1321.53
1350.7
1380.03
1408.85
1436.64
1462.93
1487.33
1509.46
1529.07
1545.82
1559.16
1569.08
1575.43
1578.03
1577.17
1573.3
1567.58
1560.07
1551.08
1540.93
1529.95
1518.44
1506.65
1494.67
1482.59
1470.43
1458.18
1445.81
1433.24
1420.36
1407
1393.08
1378.53
1363.29
1347.41
1330.4
1311.97
1291.89
1269.04
1242.22
1209.4
1167.62
1115.28
1053.97
987.634
922.194
863.561
815.944
778.562
749.594
726.915
707.73
693.214
680.371
673.247
666.265
664.764
661.451
657.808
655.639
655.922
654.568
654.082
654.417
655.216
655.459
657.84
660.806
665.091
670.262
677.228
684.882
699.425
699.561
701.814
698.678
693.433
685.888
675.265
660.99
643.415
624.364
603.162
584.057
562.486
11461.8
2822.62
1511.88
1088.07
893.548
788.198
726.885
690.77
670.534
660.943
658.801
661.964
669.073
679.309
691.931
706.462
722.62
740.224
759.089
779.061
800.128
822.808
847.494
874.187
902.787
933.059
964.733
997.6
1031.58
1066.71
1102.99
1140.34
1179.2
1220.15
1263.85
1310.94
1362
1417.67
1478.61
1545.63
1619.55
1701.3
1791.79
1891.65
2000.69
2117.48
2238.52
2358.39
2470.04
2566.5
2641.03
2690.87
2711.02
2714.7
2702.26
2676.79
2646.08
2615
2586.51
2561.77
2540.55
2521.47
2502.09
2479.02
2448.5
2406.09
2346.14
2266.72
2170.26
2050.9
1921.56
1805.66
1674.53
1590.4
1466.14
1368.62
1284.87
1217.42
1167.28
1131.4
1107.15
1092.56
1085.92
1085.54
1088.97
1097.36
1110.63
1127.34
1146.32
1166.53
1190.25
1217.42
1243.24
1269.83
1298.74
1329.52
1361.02
1392.33
1422.63
1451.22
1477.51
1501.05
1521.48
1538.62
1552.15
1561.31
1566.77
1568.16
1564.83
1558.99
1550.64
1540.25
1528.29
1515.16
1501.29
1487.04
1472.72
1458.56
1444.67
1431.1
1417.81
1404.73
1391.74