/*--------------------------------*- C++ -*----------------------------------*\
  =========                 |
  \\      /  F ield         | OpenFOAM: The Open Source CFD Toolbox
   \\    /   O peration     | Website:  https://openfoam.org
    \\  /    A nd           | Version:  13
     \\/     M anipulation  |
\*---------------------------------------------------------------------------*/
FoamFile
{
    format      ascii;
    class       volScalarField;
    location    "100";
    object      p;
}
// * * * * * * * * * * * * * * * * * * * * * * * * * * * * * * * * * * * * * //

dimensions      [0 2 -2 0 0 0 0];

internalField   nonuniform List<scalar> 
12225
(
-5.21781
-6.10776
-6.52271
-6.64152
-6.74767
-6.9222
-7.08352
-7.23185
-7.323
-7.37046
-7.4577
-7.56375
-7.67133
-7.77443
-7.87318
-7.97257
-8.0762
-8.19986
-5.50383
-6.14325
-6.48917
-6.61287
-6.73381
-6.90771
-7.06566
-7.19741
-7.28607
-7.35749
-7.44382
-7.54357
-7.64872
-7.75075
-7.84798
-7.93906
-8.02715
-8.09631
-5.70295
-6.13725
-6.47049
-6.6154
-6.74721
-6.9318
-7.08046
-7.18962
-7.28198
-7.36851
-7.45387
-7.54747
-7.64525
-7.73942
-7.82786
-7.90854
-7.97831
-8.0232
-5.83956
-6.15464
-6.47327
-6.63847
-6.77893
-6.91874
-7.04828
-7.16023
-7.25865
-7.34892
-7.43618
-7.5283
-7.62271
-7.71319
-7.79715
-7.8717
-7.93344
-7.97381
-5.95791
-6.20025
-6.4818
-6.66412
-6.78539
-6.89454
-7.02626
-7.1461
-7.24856
-7.34131
-7.43096
-7.52197
-7.61272
-7.69957
-7.77863
-7.84734
-7.90357
-7.94195
-6.07959
-6.26187
-6.49451
-6.667
-6.78426
-6.89662
-7.02535
-7.14313
-7.24442
-7.33676
-7.42562
-7.51332
-7.59944
-7.68164
-7.75544
-7.81889
-7.87074
-7.90765
-6.19198
-6.31882
-6.51639
-6.67758
-6.79483
-6.90609
-7.02659
-7.13913
-7.23844
-7.32965
-7.41677
-7.50167
-7.58414
-7.66167
-7.73084
-7.79027
-7.83913
-7.87543
-6.27483
-6.372
-6.5448
-6.69408
-6.8079
-6.91485
-7.02743
-7.13498
-7.23212
-7.3217
-7.40683
-7.48904
-7.56761
-7.64044
-7.70557
-7.76189
-7.80861
-7.84461
-6.34549
-6.42356
-6.573
-6.71066
-6.82081
-6.92361
-7.02958
-7.13214
-7.22646
-7.31385
-7.39663
-7.47573
-7.55034
-7.61916
-7.68098
-7.73477
-7.77986
-7.81585
-6.41395
-6.47653
-6.60205
-6.72765
-6.83345
-6.93207
-7.03211
-7.12967
-7.22073
-7.30551
-7.38557
-7.46138
-7.53238
-7.59773
-7.65653
-7.70804
-7.7519
-7.78805
-6.47801
-6.5286
-6.6327
-6.74546
-6.84565
-6.93974
-7.0342
-7.12682
-7.21424
-7.29605
-7.37314
-7.44575
-7.51347
-7.57567
-7.6318
-7.68144
-7.72453
-7.76115
-6.53216
-6.57344
-6.66132
-6.76255
-6.85684
-6.94641
-7.03586
-7.12385
-7.2076
-7.28636
-7.36056
-7.43032
-7.49527
-7.55492
-7.60898
-7.65728
-7.69994
-7.73698
-6.58082
-6.61503
-6.68946
-6.77991
-6.86802
-6.95286
-7.03734
-7.12068
-7.20061
-7.27618
-7.34745
-7.41443
-7.47679
-7.53419
-7.58644
-7.63358
-7.6758
-7.71318
-6.63011
-6.65823
-6.72028
-6.79959
-6.88045
-6.95968
-7.03861
-7.11676
-7.1923
-7.26414
-7.33204
-7.39592
-7.45551
-7.51056
-7.56096
-7.60681
-7.64843
-7.68589
-6.67788
-6.70085
-6.75209
-6.82051
-6.89337
-6.96632
-7.03933
-7.11187
-7.18255
-7.2502
-7.31437
-7.37481
-7.4314
-7.48392
-7.53236
-7.57676
-7.61751
-7.65472
-6.72111
-6.73988
-6.78221
-6.8407
-6.90544
-6.9718
-7.03875
-7.10554
-7.17105
-7.23423
-7.29439
-7.3512
-7.40451
-7.45431
-7.50054
-7.5433
-7.58282
-7.61929
-6.75563
-6.77117
-6.80663
-6.85691
-6.91422
-6.97424
-7.03539
-7.09667
-7.15708
-7.2157
-7.27177
-7.32481
-7.37469
-7.42147
-7.4652
-7.50586
-7.54364
-7.57862
-6.77523
-6.7886
-6.81954
-6.86408
-6.91572
-6.97055
-7.02686
-7.0835
-7.13944
-7.19385
-7.24603
-7.29542
-7.34186
-7.38546
-7.42634
-7.46444
-7.49989
-7.5327
-6.77032
-6.78289
-6.81232
-6.85468
-6.90379
-6.95589
-7.00938
-7.06311
-7.11602
-7.16728
-7.21629
-7.26252
-7.30585
-7.34633
-7.38415
-7.41922
-7.45171
-7.48161
-6.73417
-6.74822
-6.78089
-6.82669
-6.87831
-6.93185
-6.98618
-7.04018
-7.09293
-7.14334
-7.19112
-7.23568
-7.27723
-7.3156
-7.35128
-7.38393
-7.41403
-7.44143
-6.68494
-6.70194
-6.74095
-6.79362
-6.85043
-6.90771
-6.96486
-7.02119
-7.07529
-7.12642
-7.17402
-7.21816
-7.25872
-7.29609
-7.33017
-7.36135
-7.3895
-7.41534
-6.62311
-6.64536
-6.69473
-6.75755
-6.82139
-6.88368
-6.94517
-7.00501
-7.06164
-7.11415
-7.16241
-7.20657
-7.24681
-7.28341
-7.31648
-7.34631
-7.37314
-7.39752
-6.5506
-6.58146
-6.64625
-6.72187
-6.7933
-6.86115
-6.92782
-6.99195
-7.05153
-7.10589
-7.15524
-7.19982
-7.24008
-7.27613
-7.30848
-7.33711
-7.36285
-7.38587
-6.46796
-6.51276
-6.59929
-6.68928
-6.76765
-6.84133
-6.91388
-6.98252
-7.04497
-7.10119
-7.15174
-7.19701
-7.23733
-7.27312
-7.30467
-7.33257
-7.3573
-7.37961
-6.3748
-6.44169
-6.55722
-6.66124
-6.74461
-6.82397
-6.90282
-6.97599
-7.04114
-7.09915
-7.151
-7.19706
-7.23757
-7.273
-7.30386
-7.33078
-7.35443
-7.37575
-6.27101
-6.37056
-6.52192
-6.63857
-6.72542
-6.81016
-6.89463
-6.97149
-7.03891
-7.09856
-7.15182
-7.199
-7.24025
-7.276
-7.30683
-7.33346
-7.35673
-7.37782
-6.15739
-6.30243
-6.48916
-6.61376
-6.70647
-6.7998
-6.89058
-6.97066
-7.03979
-7.10039
-7.15392
-7.20101
-7.24184
-7.27698
-7.30692
-7.33261
-7.35517
-7.37617
-6.02361
-6.25953
-6.46771
-6.58418
-6.68199
-6.78792
-6.88823
-6.97418
-7.04759
-7.11138
-7.16687
-7.21461
-7.25534
-7.28977
-7.31835
-7.34229
-7.36339
-7.38445
-5.8209
-6.23477
-6.4736
-6.57033
-6.66326
-6.77426
-6.87843
-6.96623
-7.04119
-7.10666
-7.16335
-7.21159
-7.25225
-7.28619
-7.31383
-7.33588
-7.35409
-7.37066
-5.56298
-6.16496
-6.46829
-6.57494
-6.67584
-6.79527
-6.9045
-6.99402
-7.06905
-7.1344
-7.19057
-7.23788
-7.27725
-7.30961
-7.33568
-7.35502
-7.36854
-7.37718
-8.11183
-8.1121
-8.12216
-8.13666
-8.15049
-8.16156
-8.17166
-8.18168
-8.1918
-8.20137
-8.21124
-8.22169
-8.23366
-8.24715
-8.26311
-8.2813
-8.30231
-8.3257
-8.35191
-8.38021
-8.41058
-8.44173
-8.47352
-8.50447
-8.53377
-8.55916
-8.57914
-8.5906
-8.59142
-8.57818
-8.54899
-8.50053
-8.42947
-8.3312
-8.20323
-8.04374
-7.85258
-7.63003
-7.37647
-7.09385
-6.78807
-6.46441
-6.12984
-5.79316
-5.4635
-5.15029
-4.86183
-4.60373
-4.38423
-4.20388
-4.06088
-3.95561
-3.88475
-3.83932
-3.81676
-3.81748
-3.84096
-3.88402
-3.94287
-4.01156
-4.08484
-4.15756
-4.22481
-4.28291
-4.33062
-4.36766
-4.39436
-4.41162
-4.42184
-4.42628
-4.42407
-4.41455
-4.40055
-4.38314
-4.35977
-4.32304
-4.2641
-4.18885
-4.11787
-4.07473
-4.08012
-4.15381
-4.32814
-4.65505
-5.20074
-6.04026
-7.21169
-8.66508
-10.298
-12.0025
-13.6895
-15.298
-16.7909
-18.1474
-19.3568
-20.4168
-21.3293
-22.0984
-22.7273
-23.2183
-23.5735
-23.7962
-23.8891
-23.8566
-23.7029
-23.4341
-23.0561
-22.5772
-22.0042
-21.345
-20.6067
-19.798
-18.9264
-18.0011
-17.0303
-16.0236
-14.9894
-13.9354
-12.8685
-11.7966
-10.7264
-9.66417
-8.61543
-7.58516
-6.57825
-5.59844
-4.64889
-3.73281
-2.85227
-2.00906
-1.20481
-0.441161
0.280498
0.959074
1.594
2.18527
2.73405
3.24241
3.71346
4.15185
4.56314
4.9543
5.33262
5.70562
6.08021
6.46286
6.8583
7.26993
7.69929
8.14648
8.6097
9.08595
9.57102
10.0598
10.5462
11.0244
11.4888
11.9344
12.3567
12.7519
13.1173
13.4516
13.7538
14.0233
14.2591
14.4615
14.6312
14.7705
14.8824
14.9701
15.0375
15.089
15.1293
15.1636
15.1981
15.2393
15.2997
15.3886
15.5562
15.745
-8.11601
-8.1205
-8.13175
-8.14408
-8.15514
-8.16599
-8.17681
-8.18653
-8.1951
-8.20275
-8.21046
-8.2186
-8.22814
-8.23941
-8.25328
-8.26984
-8.28975
-8.31272
-8.33897
-8.36792
-8.3995
-8.43265
-8.46665
-8.4996
-8.53038
-8.55694
-8.57783
-8.59049
-8.59279
-8.58179
-8.55538
-8.51107
-8.44688
-8.35987
-8.24783
-8.10889
-7.94221
-7.74721
-7.52392
-7.27346
-6.99997
-6.70853
-6.40419
-6.09487
-5.78967
-5.49545
-5.22158
-4.97452
-4.7591
-4.58066
-4.43809
-4.32851
-4.25199
-4.20315
-4.17772
-4.1735
-4.18807
-4.21739
-4.25717
-4.30292
-4.3501
-4.39438
-4.43284
-4.46267
-4.48187
-4.4907
-4.49115
-4.48536
-4.47568
-4.46481
-4.45286
-4.43776
-4.41885
-4.39345
-4.35919
-4.31659
-4.25063
-4.15765
-4.06671
-4.01776
-4.04616
-4.1678
-4.41433
-4.84947
-5.53555
-6.52229
-7.81824
-9.34145
-10.9816
-12.6436
-14.2597
-15.7857
-17.1965
-18.4794
-19.6289
-20.6425
-21.52
-22.2623
-22.8707
-23.3466
-23.6911
-23.9065
-23.9958
-23.9622
-23.8102
-23.5444
-23.1706
-22.6953
-22.1257
-21.4688
-20.7324
-19.9245
-19.054
-18.1293
-17.1591
-16.1525
-15.1183
-14.0637
-12.996
-11.9222
-10.8494
-9.78343
-8.73
-7.69409
-6.68049
-5.69328
-4.7358
-3.81129
-2.92222
-2.07071
-1.25873
-0.488081
0.239719
0.923434
1.5623
2.15621
2.70631
3.21475
3.68483
4.12132
4.53002
4.918
5.29279
5.66217
6.03335
6.41277
6.80535
7.21438
7.64119
8.08578
8.54619
9.01923
9.50051
9.98505
10.4671
10.9411
11.4015
11.8438
12.2634
12.657
13.0219
13.3565
13.6591
13.9287
14.1649
14.3682
14.5392
14.6803
14.7942
14.8846
14.9553
15.0107
15.0553
15.0941
15.133
15.1781
15.2404
15.3247
15.4696
15.6097
-8.13346
-8.13628
-8.14362
-8.15304
-8.16236
-8.17193
-8.1811
-8.18884
-8.19543
-8.20123
-8.20719
-8.21364
-8.22154
-8.23127
-8.24381
-8.25936
-8.27857
-8.30124
-8.32755
-8.35681
-8.38866
-8.42183
-8.4554
-8.48763
-8.51735
-8.54276
-8.56266
-8.57502
-8.57844
-8.57103
-8.55138
-8.51737
-8.4666
-8.39649
-8.30531
-8.19122
-8.0527
-7.88839
-7.69758
-7.48094
-7.24111
-6.98141
-6.70617
-6.42191
-6.13607
-5.85538
-5.58825
-5.34217
-5.12257
-4.9339
-4.77771
-4.65256
-4.55726
-4.48982
-4.44814
-4.43008
-4.43337
-4.45471
-4.4901
-4.53457
-4.58269
-4.62865
-4.66704
-4.69269
-4.70243
-4.69578
-4.67416
-4.63954
-4.59508
-4.54504
-4.49189
-4.4391
-4.39207
-4.349
-4.31122
-4.28619
-4.27207
-4.26465
-4.2794
-4.33842
-4.45543
-4.6682
-5.02522
-5.60981
-6.47309
-7.5885
-8.90628
-10.3557
-11.8655
-13.3793
-14.8549
-16.261
-17.5766
-18.7873
-19.8843
-20.8616
-21.716
-22.4442
-23.044
-23.5149
-23.858
-24.0736
-24.1643
-24.1323
-23.9825
-23.7186
-23.3465
-22.8718
-22.3016
-21.6435
-20.9052
-20.0944
-19.221
-18.2931
-17.3199
-16.3103
-15.2733
-14.2159
-13.1456
-12.0689
-10.9923
-9.92196
-8.86325
-7.8212
-6.80043
-5.80512
-4.83897
-3.90503
-3.00613
-2.14485
-1.32353
-0.544169
0.191535
0.882176
1.52682
2.12534
2.67863
3.18866
3.6589
4.09398
4.50009
4.88446
5.25492
5.61969
5.98652
6.36189
6.75104
7.15717
7.58168
8.02427
8.48287
8.95392
9.43299
9.91486
10.3941
10.8651
11.3228
11.7626
12.1805
12.5732
12.938
13.2728
13.5757
13.8458
14.0827
14.2865
14.4584
14.6005
14.7156
14.8073
14.8796
14.9368
14.9833
15.024
15.0643
15.1098
15.1693
15.2435
15.3548
15.4228
-8.15839
-8.15957
-8.16644
-8.17504
-8.18352
-8.19245
-8.20083
-8.20768
-8.21339
-8.2183
-8.22329
-8.2287
-8.23548
-8.24401
-8.25526
-8.26949
-8.28741
-8.30888
-8.33407
-8.36224
-8.39308
-8.42547
-8.45859
-8.49084
-8.5211
-8.54785
-8.57001
-8.58592
-8.59454
-8.5945
-8.5844
-8.56182
-8.52474
-8.47131
-8.39963
-8.30718
-8.1921
-8.05274
-7.88805
-7.69756
-7.48231
-7.24468
-6.98832
-6.71834
-6.44148
-6.16505
-5.89704
-5.64508
-5.41645
-5.21654
-5.0477
-4.91022
-4.803
-4.72337
-4.66915
-4.6384
-4.62881
-4.63778
-4.66236
-4.69901
-4.74288
-4.78803
-4.82833
-4.85752
-4.87073
-4.86456
-4.83632
-4.78396
-4.7087
-4.61836
-4.52288
-4.43389
-4.36658
-4.32486
-4.29966
-4.28922
-4.3014
-4.33852
-4.41041
-4.53526
-4.75194
-5.12629
-5.71971
-6.54137
-7.56272
-8.73982
-10.0295
-11.389
-12.7794
-14.1671
-15.5254
-16.8304
-18.062
-19.206
-20.2512
-21.1894
-22.0145
-22.7218
-23.3071
-23.7687
-24.1056
-24.317
-24.4048
-24.3714
-24.2192
-23.9535
-23.5798
-23.1027
-22.5287
-21.8656
-21.1214
-20.3043
-19.4236
-18.488
-17.507
-16.4897
-15.4448
-14.3797
-13.3022
-12.2186
-11.1351
-10.0577
-8.99147
-7.94151
-6.91244
-5.90827
-4.93285
-3.98942
-3.08089
-2.20998
-1.37916
-0.590663
0.153541
0.851859
1.50324
2.10746
2.66505
3.17771
3.64886
4.08309
4.48693
4.86793
5.23431
5.59473
5.95751
6.3294
6.71583
7.12011
7.54358
7.98569
8.44426
8.91536
9.39436
9.87588
10.3546
10.825
11.2822
11.7215
12.1391
12.5315
12.8958
13.2299
13.5321
13.8015
14.0376
14.2405
14.4115
14.5527
14.667
14.7579
14.8293
14.8854
14.9307
14.9697
15.0075
15.0489
15.1001
15.1583
15.2348
15.2425
-8.18921
-8.18992
-8.19742
-8.20415
-8.21118
-8.21953
-8.22783
-8.235
-8.24126
-8.24686
-8.25258
-8.25863
-8.26582
-8.27444
-8.28542
-8.29908
-8.31626
-8.33697
-8.3616
-8.38961
-8.42076
-8.45397
-8.48872
-8.52376
-8.55794
-8.58958
-8.61779
-8.64124
-8.65895
-8.66931
-8.67088
-8.66186
-8.6407
-8.60528
-8.55344
-8.48229
-8.38942
-8.27269
-8.1305
-7.96162
-7.7664
-7.54664
-7.30533
-7.04645
-6.7764
-6.50196
-6.23041
-5.97015
-5.72877
-5.5125
-5.32618
-5.17096
-5.04587
-4.94915
-4.87865
-4.83154
-4.80548
-4.79824
-4.80757
-4.8308
-4.86418
-4.90257
-4.93965
-4.96935
-4.98646
-4.9851
-4.95679
-4.89636
-4.80754
-4.70023
-4.58661
-4.47955
-4.3911
-4.32535
-4.27933
-4.25743
-4.27346
-4.34021
-4.4742
-4.70316
-5.1017
-5.72119
-6.54479
-7.53284
-8.64432
-9.84356
-11.1026
-12.3965
-13.7019
-14.9988
-16.2675
-17.4908
-18.6505
-19.7337
-20.7282
-21.6254
-22.4175
-23.0985
-23.6633
-24.1088
-24.432
-24.6329
-24.7119
-24.6711
-24.5121
-24.2399
-23.8589
-23.3754
-22.7944
-22.1233
-21.3703
-20.544
-19.653
-18.7072
-17.7158
-16.6883
-15.6325
-14.5573
-13.4699
-12.377
-11.2844
-10.1976
-9.12211
-8.06297
-7.02465
-6.01129
-5.02667
-4.07412
-3.15657
-2.27675
-1.4371
-0.639915
0.112696
0.818956
1.47757
2.08789
2.64998
3.16539
3.63734
4.0707
4.47202
4.84934
5.21128
5.56721
5.92573
6.29423
6.67811
7.08087
7.50356
7.94549
8.40414
8.87561
9.35502
9.83709
10.3164
10.7875
11.2454
11.6854
12.1032
12.4956
12.8596
13.1932
13.4947
13.7632
13.9983
14.2003
14.3703
14.5106
14.6238
14.7135
14.7834
14.8378
14.8807
14.9167
14.9499
14.9843
15.0236
15.0624
15.1058
15.0676
-8.22347
-8.2248
-8.23163
-8.23673
-8.24347
-8.25229
-8.26155
-8.27016
-8.27829
-8.28606
-8.29409
-8.30249
-8.31195
-8.32265
-8.33549
-8.35077
-8.36942
-8.3916
-8.41786
-8.44791
-8.48172
-8.51828
-8.55709
-8.59702
-8.63725
-8.67651
-8.71395
-8.74812
-8.77795
-8.8019
-8.81882
-8.82705
-8.82496
-8.81029
-8.78062
-8.73306
-8.66501
-8.57361
-8.45661
-8.31224
-8.13993
-7.94036
-7.71626
-7.47093
-7.21003
-6.94005
-6.66717
-6.39891
-6.14308
-5.90593
-5.69311
-5.50806
-5.35232
-5.22532
-5.12556
-5.05099
-4.99949
-4.96815
-4.95505
-4.95808
-4.97417
-4.99944
-5.02879
-5.05666
-5.07586
-5.07733
-5.0523
-4.99693
-4.91414
-4.81079
-4.6939
-4.57364
-4.46331
-4.37371
-4.31317
-4.29721
-4.34476
-4.47173
-4.70664
-5.10814
-5.72156
-6.53197
-7.49646
-8.57078
-9.71993
-10.9187
-12.1481
-13.3914
-14.6343
-15.8617
-17.0606
-18.2161
-19.3148
-20.3436
-21.2914
-22.1483
-22.9068
-23.5596
-24.101
-24.5261
-24.8323
-25.0183
-25.0835
-25.0291
-24.8587
-24.5747
-24.1817
-23.6855
-23.0922
-22.4087
-21.6433
-20.8044
-19.9008
-18.9425
-17.9389
-16.8993
-15.8319
-14.7457
-13.6478
-12.5444
-11.4414
-10.3442
-9.25872
-8.19
-7.14255
-6.12054
-5.12764
-4.16702
-3.24164
-2.35416
-1.50708
-0.702642
0.057021
0.770068
1.43496
2.05064
2.61687
3.13494
3.60791
4.04068
4.44008
4.81445
5.17289
5.52516
5.8803
6.24616
6.62834
7.03017
7.45252
7.89436
8.35286
8.82429
9.30389
9.78641
10.2661
10.7377
11.1958
11.6359
12.0534
12.4452
12.8084
13.1411
13.4415
13.7088
13.9427
14.1437
14.3128
14.4523
14.5647
14.6535
14.7222
14.775
14.8156
14.8483
14.8765
14.9031
14.9299
14.9494
14.9637
14.8918
-8.25874
-8.26059
-8.26651
-8.27191
-8.27989
-8.29004
-8.30097
-8.31181
-8.32272
-8.33372
-8.34531
-8.3575
-8.37091
-8.38566
-8.40258
-8.42195
-8.44468
-8.47097
-8.5015
-8.53614
-8.57503
-8.61751
-8.66308
-8.7106
-8.75962
-8.80916
-8.85828
-8.90568
-8.95056
-8.99174
-9.0281
-9.05774
-9.07895
-9.08936
-9.08634
-9.0668
-9.0279
-8.96635
-8.87928
-8.76424
-8.62002
-8.44611
-8.24385
-8.01562
-7.76585
-7.50035
-7.22558
-6.9481
-6.67527
-6.41313
-6.16727
-5.9425
-5.7431
-5.57106
-5.42642
-5.30916
-5.21844
-5.15192
-5.10746
-5.08266
-5.07543
-5.08273
-5.10017
-5.12146
-5.13792
-5.14048
-5.12357
-5.08485
-5.02173
-4.9346
-4.82714
-4.71115
-4.60108
-4.5115
-4.45916
-4.47033
-4.56673
-4.77767
-5.15671
-5.74239
-6.52104
-7.4535
-8.49494
-9.60881
-10.7691
-11.9569
-13.1578
-14.3607
-15.5549
-16.7303
-17.8747
-18.9767
-20.0252
-21.0078
-21.9145
-22.7348
-23.4614
-24.0862
-24.6033
-25.0068
-25.2939
-25.4618
-25.5099
-25.4386
-25.2514
-24.9507
-24.5412
-24.0278
-23.4175
-22.717
-21.9348
-21.0796
-20.1606
-19.1873
-18.1693
-17.1158
-16.0356
-14.9368
-13.8265
-12.7108
-11.5957
-10.4873
-9.39137
-8.31315
-7.25716
-6.2275
-5.2277
-4.26085
-3.32976
-2.43704
-1.58495
-0.775683
-0.0113118
0.706166
1.3752
1.99457
2.56385
3.08396
3.5578
3.99018
4.38824
4.76058
5.11686
5.46703
5.82057
6.18528
6.5669
6.96854
7.39111
7.8332
8.29206
8.76368
9.24336
9.7256
10.2048
10.6756
11.1328
11.5716
11.9877
12.3778
12.7393
13.07
13.3686
13.6341
13.8665
14.0662
14.2344
14.3731
14.4849
14.5729
14.6408
14.6922
14.7309
14.7603
14.7833
14.8018
14.8164
14.8183
14.8079
14.7118
-8.29363
-8.29535
-8.30211
-8.30968
-8.31974
-8.3318
-8.34501
-8.35872
-8.37305
-8.38794
-8.4038
-8.42067
-8.43912
-8.45926
-8.48186
-8.50715
-8.53599
-8.56862
-8.6057
-8.64722
-8.69354
-8.74421
-8.79909
-8.85739
-8.91863
-8.98183
-9.04632
-9.11104
-9.17529
-9.2378
-9.29747
-9.35275
-9.40201
-9.44258
-9.4716
-9.48559
-9.48118
-9.4544
-9.40193
-9.32061
-9.20832
-9.06363
-8.88715
-8.68021
-8.44539
-8.18631
-7.90843
-7.61773
-7.32158
-7.02688
-6.74018
-6.4671
-6.21326
-5.98354
-5.78042
-5.60526
-5.45961
-5.34364
-5.25649
-5.19627
-5.15975
-5.14356
-5.14333
-5.15232
-5.16389
-5.17113
-5.16857
-5.15135
-5.11386
-5.05402
-4.97284
-4.87944
-4.7905
-4.72227
-4.69515
-4.74126
-4.89779
-5.21841
-5.74857
-6.48149
-7.37558
-8.38442
-9.46936
-10.6023
-11.7636
-12.9391
-14.1181
-15.2915
-16.4509
-17.5869
-18.6907
-19.7522
-20.7605
-21.7056
-22.577
-23.366
-24.0636
-24.6624
-25.1555
-25.5373
-25.8034
-25.951
-25.979
-25.8882
-25.6806
-25.3597
-24.9295
-24.3957
-23.7646
-23.0437
-22.2415
-21.3672
-20.4298
-19.439
-18.4042
-17.3347
-16.2391
-15.1251
-13.9995
-12.8689
-11.7401
-10.6193
-9.51253
-8.42483
-7.36073
-6.32428
-5.31881
-4.34731
-3.41234
-2.51637
-1.6614
-0.8495
-0.0825875
0.637356
1.30862
1.92981
2.5002
3.02055
3.49375
3.92481
4.32112
4.69159
5.04638
5.39581
5.74944
6.11499
6.49797
6.90115
7.32506
7.76805
8.22726
8.69863
9.17751
9.65832
10.1356
10.6041
11.0588
11.4949
11.9081
12.2953
12.6538
12.9817
13.2777
13.5408
13.7711
13.9691
14.136
14.2738
14.385
14.4725
14.5398
14.5902
14.6271
14.6533
14.6714
14.6821
14.6851
14.6712
14.6401
14.5266
-8.32804
-8.32968
-8.33917
-8.34976
-8.3622
-8.37655
-8.39238
-8.4092
-8.42708
-8.44596
-8.46626
-8.48807
-8.51197
-8.53809
-8.56716
-8.59943
-8.6357
-8.67622
-8.72173
-8.77229
-8.82833
-8.88967
-8.95641
-9.02805
-9.10442
-9.18484
-9.26888
-9.35563
-9.44435
-9.53361
-9.62225
-9.7086
-9.79077
-9.86614
-9.9323
-9.98572
-10.0221
-10.0363
-10.0243
-9.98216
-9.90677
-9.79533
-9.64698
-9.46191
-9.24173
-8.98881
-8.70694
-8.40048
-8.0758
-7.74043
-7.40265
-7.07011
-6.74975
-6.44864
-6.1726
-5.92564
-5.71139
-5.53315
-5.39199
-5.28658
-5.21348
-5.16814
-5.14648
-5.14256
-5.15131
-5.16676
-5.18089
-5.18605
-5.17756
-5.15073
-5.10581
-5.04793
-4.98956
-4.94992
-4.95688
-5.05218
-5.29075
-5.73232
-6.39203
-7.23386
-8.20605
-9.26462
-10.3775
-11.5224
-12.6841
-13.8517
-15.0166
-16.1709
-17.3064
-18.4164
-19.4914
-20.5235
-21.5021
-22.4184
-23.262
-24.025
-24.6981
-25.274
-25.7449
-26.1055
-26.3503
-26.4767
-26.4828
-26.37
-26.1396
-25.7959
-25.3425
-24.7854
-24.131
-23.3874
-22.5631
-21.6675
-20.7095
-19.6988
-18.6447
-17.5565
-16.4425
-15.31
-14.1663
-13.0189
-11.8751
-10.7412
-9.62311
-8.52583
-7.45389
-6.41104
-5.40048
-4.42476
-3.48639
-2.58763
-1.73074
-0.917615
-0.150161
0.56986
1.24063
1.86086
2.42973
2.94813
3.41881
3.84716
4.24082
4.6095
4.96377
5.31428
5.67019
6.03897
6.42526
6.8314
7.25732
7.7014
8.16054
8.63098
9.10788
9.58597
10.0598
10.5247
10.9754
11.4072
11.8161
12.1992
12.5537
12.878
13.1704
13.4306
13.6583
13.8543
14.0196
14.1562
14.2665
14.3534
14.4201
14.4695
14.5047
14.5281
14.5415
14.545
14.5374
14.5097
14.4611
14.3352
-8.36256
-8.36474
-8.37807
-8.39173
-8.40633
-8.42282
-8.44112
-8.46078
-8.4819
-8.50447
-8.52893
-8.55548
-8.58472
-8.61683
-8.65255
-8.69217
-8.73652
-8.78592
-8.84112
-8.90232
-8.97011
-9.04447
-9.1257
-9.21359
-9.30816
-9.40896
-9.51582
-9.62803
-9.74507
-9.86577
-9.98901
-10.1127
-10.2346
-10.3518
-10.4616
-10.5598
-10.6419
-10.7028
-10.7371
-10.7397
-10.7062
-10.6325
-10.5157
-10.3539
-10.1475
-9.89752
-9.60722
-9.28053
-8.92298
-8.54116
-8.14378
-7.74061
-7.34148
-6.95618
-6.59378
-6.26187
-5.96694
-5.71464
-5.50824
-5.34798
-5.23121
-5.15365
-5.11063
-5.09531
-5.10217
-5.12602
-5.15552
-5.18103
-5.19953
-5.20553
-5.19519
-5.16979
-5.14367
-5.14064
-5.19346
-5.35402
-5.69155
-6.25006
-7.01501
-7.93665
-8.96451
-10.0595
-11.1944
-12.3511
-13.5173
-14.6837
-15.8426
-16.9869
-18.1099
-19.2033
-20.2611
-21.2736
-22.2323
-23.1277
-23.9513
-24.6939
-25.3475
-25.9037
-26.3554
-26.6962
-26.921
-27.0261
-27.0103
-26.8745
-26.6209
-26.2531
-25.7753
-25.1935
-24.515
-23.7474
-22.8999
-21.9812
-21.0005
-19.9676
-18.8917
-17.7817
-16.6458
-15.4921
-14.3286
-13.1634
-12.0038
-10.8561
-9.72627
-8.61917
-7.53921
-6.49005
-5.4747
-4.49544
-3.55453
-2.65404
-1.79599
-0.982289
-0.214981
0.503906
1.17247
1.78931
2.35383
2.86717
3.33273
3.75658
4.14724
4.51515
4.87119
5.22554
5.58661
5.96087
6.35209
6.76195
7.19012
7.63496
8.09348
8.56202
9.03583
9.50988
9.97923
10.4392
10.8845
11.3109
11.7145
12.0923
12.442
12.7617
13.0501
13.3068
13.5315
13.725
13.8884
14.0237
14.1329
14.2191
14.2849
14.3333
14.3667
14.3873
14.3961
14.3929
14.3758
14.3364
14.2735
14.1387
-8.39777
-8.40064
-8.41774
-8.43386
-8.4501
-8.46836
-8.48874
-8.51082
-8.53468
-8.5604
-8.58851
-8.6193
-8.65343
-8.69116
-8.73325
-8.78011
-8.83262
-8.89119
-8.95669
-9.02948
-9.11024
-9.19922
-9.29691
-9.4033
-9.51865
-9.64273
-9.77551
-9.91645
-10.0652
-10.2207
-10.3819
-10.5469
-10.7136
-10.8787
-11.0384
-11.1878
-11.3221
-11.4354
-11.5215
-11.5737
-11.5864
-11.554
-11.4719
-11.3361
-11.1447
-10.8972
-10.5953
-10.2423
-9.84397
-9.40765
-8.94272
-8.46062
-7.97448
-7.49701
-7.04018
-6.6151
-6.23193
-5.89858
-5.62013
-5.39882
-5.23398
-5.12228
-5.05741
-5.03121
-5.03519
-5.06168
-5.09854
-5.13658
-5.1716
-5.19671
-5.20669
-5.20623
-5.21158
-5.2479
-5.35689
-5.60159
-6.04755
-6.71186
-7.56165
-8.54611
-9.61906
-10.7459
-11.9031
-13.0753
-14.2518
-15.4241
-16.5853
-17.7289
-18.8477
-19.9354
-20.9846
-21.9868
-22.9338
-23.8163
-24.6262
-25.3543
-25.9931
-26.5339
-26.9695
-27.2928
-27.4993
-27.5847
-27.5481
-27.3903
-27.1142
-26.7227
-26.2211
-25.615
-24.9121
-24.1202
-23.2482
-22.3046
-21.2991
-20.2411
-19.1401
-18.0049
-16.8446
-15.6682
-14.4844
-13.3012
-12.1258
-10.9648
-9.82368
-8.70729
-7.61954
-6.56412
-5.54377
-4.56076
-3.61709
-2.71496
-1.85639
-1.0436
-0.278562
0.436586
1.10003
1.71036
2.26764
2.77359
3.23268
3.65203
4.04133
4.41118
4.77223
5.1334
5.50203
5.88318
6.2801
6.69375
7.12395
7.56891
8.02605
8.49157
8.96118
9.43009
9.89393
10.3477
10.7867
11.2065
11.6039
11.9758
12.3198
12.6343
12.9181
13.1707
13.3921
13.5829
13.7443
13.8778
13.9859
14.0711
14.1361
14.1833
14.215
14.2327
14.2372
14.2278
14.2024
14.153
14.0786
13.9376
-8.43379
-8.43696
-8.45709
-8.47496
-8.49219
-8.51156
-8.5334
-8.55722
-8.58312
-8.61129
-8.64233
-8.67665
-8.71493
-8.75756
-8.80536
-8.85889
-8.9191
-8.9866
-9.06228
-9.14673
-9.24084
-9.34504
-9.46004
-9.58611
-9.72369
-9.87276
-10.0335
-10.2054
-10.3883
-10.5813
-10.7832
-10.9923
-11.2064
-11.422
-11.6353
-11.8408
-12.0327
-12.2037
-12.3466
-12.4532
-12.5163
-12.5287
-12.484
-12.376
-12.2006
-11.9551
-11.6399
-11.2575
-10.8136
-10.3167
-9.77821
-9.21113
-8.63117
-8.05483
-7.49871
-6.97809
-6.50617
-6.09176
-5.74071
-5.45751
-5.24462
-5.09798
-5.00869
-4.9664
-4.95839
-4.97405
-5.00191
-5.03338
-5.06416
-5.08772
-5.10267
-5.11799
-5.15125
-5.23428
-5.41651
-5.76063
-6.31385
-7.07155
-7.994
-9.03332
-10.1481
-11.3074
-12.4906
-13.6838
-14.8772
-16.0631
-17.2349
-18.3859
-19.51
-20.5998
-21.6489
-22.6493
-23.5919
-24.4686
-25.2708
-25.9905
-26.619
-27.1486
-27.5712
-27.8804
-28.071
-28.1394
-28.0841
-27.9066
-27.6096
-27.1964
-26.672
-26.0427
-25.315
-24.4975
-23.5989
-22.6281
-21.5945
-20.5083
-19.3793
-18.2174
-17.0325
-15.8338
-14.63
-13.4291
-12.2384
-11.0643
-9.9122
-8.78657
-7.6913
-6.62998
-5.60521
-4.61924
-3.6741
-2.77199
-1.91512
-1.10573
-0.345802
0.36258
1.01762
1.61849
2.16628
2.66404
3.11754
3.53501
3.9265
4.30217
4.67135
5.04166
5.41907
5.80777
6.21035
6.62756
7.0592
7.50367
7.95848
8.42004
8.88452
9.34755
9.80485
10.2516
10.6832
11.0956
11.4862
11.8515
12.1893
12.498
12.7768
13.0251
13.2429
13.4309
13.59
13.7219
13.8287
13.913
13.9772
14.0234
14.0535
14.0686
14.0693
14.0543
14.0216
13.9636
13.8798
13.734
-8.47009
-8.47317
-8.49521
-8.51377
-8.53104
-8.55071
-8.57321
-8.59794
-8.62502
-8.65476
-8.68783
-8.72476
-8.76625
-8.81282
-8.86538
-8.92466
-8.99168
-9.0672
-9.15231
-9.2478
-9.35469
-9.47372
-9.60581
-9.75145
-9.91133
-10.0856
-10.2747
-10.4782
-10.6961
-10.9275
-11.1714
-11.4259
-11.6888
-11.9565
-12.2248
-12.4878
-12.739
-12.97
-13.1722
-13.336
-13.4519
-13.5111
-13.5054
-13.4264
-13.2675
-13.0238
-12.694
-12.2801
-11.7886
-11.2292
-10.6153
-9.9621
-9.28793
-8.61239
-7.9557
-7.33721
-6.77369
-6.27656
-5.85282
-5.50755
-5.2434
-5.0546
-4.93025
-4.85717
-4.81922
-4.80532
-4.80568
-4.81166
-4.81939
-4.82586
-4.83703
-4.86569
-4.93441
-5.08009
-5.35168
-5.80232
-6.45769
-7.29986
-8.28874
-9.38047
-10.5377
-11.7328
-12.9471
-14.1676
-15.3852
-16.5923
-17.7823
-18.9492
-20.0856
-21.1862
-22.2429
-23.2483
-24.1935
-25.0708
-25.8713
-26.5876
-27.2106
-27.733
-28.1465
-28.4451
-28.6231
-28.6776
-28.6066
-28.4121
-28.0965
-27.6631
-27.1164
-26.4631
-25.7093
-24.8637
-23.9353
-22.934
-21.8701
-20.7544
-19.5977
-18.4103
-17.2022
-15.9828
-14.7605
-13.5432
-12.3383
-11.1518
-9.98939
-8.85532
-7.75366
-6.68758
-5.6598
-4.67264
-3.72839
-2.82905
-1.97692
-1.17406
-0.422599
0.275685
0.91946
1.50917
2.04726
2.53849
2.98963
3.40938
3.80706
4.19176
4.57119
4.95181
5.33834
5.73457
6.14235
6.5626
6.99503
7.43832
7.88997
8.34693
8.80558
9.26206
9.71183
10.1506
10.5741
10.9787
11.3617
11.72
12.051
12.3538
12.6274
12.8713
13.0856
13.2709
13.428
13.5584
13.6643
13.748
13.8116
13.857
13.8857
13.8986
13.8957
13.8758
13.8363
13.7709
13.6786
13.5288
-8.50566
-8.50822
-8.53076
-8.5488
-8.56516
-8.58417
-8.6063
-8.63096
-8.65828
-8.68865
-8.72277
-8.76126
-8.80487
-8.85426
-8.91043
-8.97423
-9.04676
-9.12901
-9.22219
-9.32735
-9.44574
-9.57832
-9.72621
-9.89016
-10.071
-10.2692
-10.4853
-10.7192
-10.9707
-11.2392
-11.5238
-11.8224
-12.1329
-12.4515
-12.7737
-13.0931
-13.4024
-13.6924
-13.9531
-14.1732
-14.3416
-14.4472
-14.4803
-14.4303
-14.2882
-14.0469
-13.7031
-13.2576
-12.7167
-12.0916
-11.3985
-10.6564
-9.88727
-9.11403
-8.35947
-7.64542
-6.99122
-6.41102
-5.91235
-5.49841
-5.16896
-4.91877
-4.73797
-4.61266
-4.52653
-4.46703
-4.42296
-4.38813
-4.36396
-4.35395
-4.36915
-4.42539
-4.54813
-4.77483
-5.14936
-5.70815
-6.45908
-7.37953
-8.43172
-9.57607
-10.7787
-12.0145
-13.2657
-14.5201
-15.7689
-17.0044
-18.22
-19.4095
-20.5663
-21.6838
-22.7551
-23.7717
-24.7258
-25.6089
-26.4134
-27.1308
-27.7534
-28.2728
-28.6813
-28.9723
-29.1416
-29.1852
-29.1015
-28.8918
-28.5585
-28.1046
-27.5342
-26.8537
-26.0713
-25.1957
-24.237
-23.206
-22.1141
-20.9721
-19.791
-18.581
-17.3522
-16.114
-14.8748
-13.6427
-12.4249
-11.2275
-10.056
-8.91505
-7.8085
-6.73949
-5.71089
-4.72525
-3.78482
-2.89149
-2.04742
-1.25458
-0.5147
0.171095
0.802744
1.3821
1.91305
2.40143
2.85443
3.28026
3.68723
4.0829
4.47369
4.86483
5.26044
5.66366
6.07617
6.49889
6.9316
7.37312
7.82116
8.27307
8.72548
9.17453
9.6161
10.0463
10.4612
10.8578
11.2328
11.5835
11.9078
12.2049
12.4735
12.7133
12.9243
13.1072
13.2625
13.3917
13.4968
13.5802
13.6435
13.6884
13.7159
13.7269
13.7209
13.6965
13.651
13.5789
13.4789
13.3251
-8.53914
-8.54071
-8.5623
-8.57876
-8.59318
-8.6104
-8.6311
-8.65472
-8.68128
-8.71122
-8.74529
-8.78419
-8.82873
-8.87971
-8.93812
-9.00494
-9.08137
-9.16858
-9.268
-9.3809
-9.50879
-9.65293
-9.81464
-9.99481
-10.1945
-10.4142
-10.6546
-10.9157
-11.1974
-11.4993
-11.8205
-12.1591
-12.5129
-12.8779
-13.2493
-13.6203
-13.983
-14.3273
-14.6421
-14.9143
-15.1313
-15.2797
-15.3479
-15.324
-15.1966
-14.9561
-14.5973
-14.1191
-13.5271
-12.8328
-12.055
-11.218
-10.3486
-9.47368
-8.61916
-7.80854
-7.06175
-6.39375
-5.81359
-5.32355
-4.92009
-4.59614
-4.34289
-4.14761
-3.99667
-3.87701
-3.77806
-3.69983
-3.65129
-3.64168
-3.68268
-3.79175
-3.99385
-4.32135
-4.80652
-5.4698
-6.30947
-7.30323
-8.41743
-9.61638
-10.8689
-12.151
-13.4456
-14.7409
-16.0276
-17.298
-18.5462
-19.7646
-20.9479
-22.0884
-23.1796
-24.2132
-25.1812
-26.0754
-26.8882
-27.611
-28.2368
-28.7568
-29.164
-29.4513
-29.6141
-29.6485
-29.553
-29.3274
-28.9747
-28.4982
-27.9029
-27.1955
-26.3854
-25.4824
-24.4974
-23.4412
-22.3254
-21.161
-19.9588
-18.7292
-17.4822
-16.2274
-14.9735
-13.7284
-12.4995
-11.2932
-10.1148
-8.96918
-7.86008
-6.79091
-5.76447
-4.78343
-3.84977
-2.96547
-2.13221
-1.3516
-0.624514
0.0489269
0.670121
1.24207
1.7697
2.25918
2.71767
3.15235
3.57039
3.9778
4.38008
4.78136
5.18552
5.59505
6.01171
6.43627
6.86878
7.30804
7.75207
8.19845
8.64405
9.08505
9.51817
9.93951
10.3458
10.7341
11.1009
11.4439
11.7619
12.0533
12.3172
12.553
12.7609
12.9412
13.0945
13.2221
13.3265
13.4094
13.4725
13.5168
13.5434
13.5526
13.544
13.5159
13.4658
13.3885
13.2823
13.1258
-8.57016
-8.57039
-8.58954
-8.6031
-8.61422
-8.62827
-8.64623
-8.66754
-8.69214
-8.72053
-8.75342
-8.79165
-8.83603
-8.88738
-8.94668
-9.01505
-9.09379
-9.1842
-9.2878
-9.40622
-9.54135
-9.69479
-9.86805
-10.0622
-10.2781
-10.5165
-10.7778
-11.0622
-11.3698
-11.7001
-12.0525
-12.4253
-12.8163
-13.2215
-13.6356
-14.0511
-14.4599
-14.8509
-15.2119
-15.5286
-15.7864
-15.9694
-16.0643
-16.0577
-15.9364
-15.6887
-15.3071
-14.7891
-14.1398
-13.3715
-12.5052
-11.568
-10.5911
-9.60592
-8.64264
-7.72733
-6.88047
-6.1168
-5.44582
-4.87049
-4.38711
-3.98682
-3.66025
-3.39579
-3.18168
-3.00684
-2.86516
-2.76044
-2.70709
-2.71849
-2.80669
-2.98962
-3.28588
-3.71972
-4.31363
-5.07785
-6.00529
-7.07389
-8.25369
-9.51183
-10.8201
-12.1545
-13.4995
-14.8421
-16.1739
-17.4865
-18.7733
-20.0284
-21.2439
-22.4136
-23.5302
-24.5855
-25.5717
-26.4814
-27.3063
-28.0385
-28.6696
-29.1922
-29.5989
-29.8826
-30.0375
-30.0605
-29.9501
-29.7069
-29.3334
-28.8341
-28.2149
-27.4836
-26.6498
-25.724
-24.7168
-23.6397
-22.5039
-21.3206
-20.1007
-18.8547
-17.5928
-16.3244
-15.0585
-13.8034
-12.5663
-11.3538
-10.1713
-9.02378
-7.9151
-6.84867
-5.82727
-4.85336
-3.92883
-3.05531
-2.23402
-1.46579