/*--------------------------------*- C++ -*----------------------------------*\
  =========                 |
  \\      /  F ield         | OpenFOAM: The Open Source CFD Toolbox
   \\    /   O peration     | Website:  https://openfoam.org
    \\  /    A nd           | Version:  13
     \\/     M anipulation  |
\*---------------------------------------------------------------------------*/
FoamFile
{
    format      ascii;
    class       surfaceScalarField;
    location    "100";
    object      phi;
}
// * * * * * * * * * * * * * * * * * * * * * * * * * * * * * * * * * * * * * //

dimensions      [0 3 -1 0 0 0 0];

internalField   nonuniform List<scalar> 
24170
(
3.0498e-06
1.38601e-07
2.89198e-06
1.57805e-07
2.74708e-06
1.44854e-07
2.61716e-06
1.29851e-07
2.49905e-06
1.18084e-07
2.39061e-06
1.08385e-07
2.29301e-06
9.75622e-08
2.20777e-06
8.51885e-08
2.137e-06
7.07332e-08
2.08015e-06
5.67929e-08
2.034e-06
4.61059e-08
1.99566e-06
3.82965e-08
1.9648e-06
3.08107e-08
1.94236e-06
2.23836e-08
1.9281e-06
1.42051e-08
1.92115e-06
6.89835e-09
1.92165e-06
-5.55163e-10
-9.9401e-09
1.93153e-06
3.48161e-06
7.42314e-08
3.53824e-06
1.01146e-07
3.5715e-06
1.11553e-07
3.58419e-06
1.17118e-07
3.58352e-06
1.18703e-07
3.57324e-06
1.18617e-07
3.55522e-06
1.15536e-07
3.53176e-06
1.0861e-07
3.50546e-06
9.69896e-08
3.47504e-06
8.71668e-08
3.44138e-06
7.97218e-08
3.40728e-06
7.23489e-08
3.37509e-06
6.29608e-08
3.34584e-06
5.15855e-08
3.31784e-06
4.21543e-08
3.29052e-06
3.41737e-08
3.26478e-06
2.51347e-08
1.57176e-08
3.23906e-06
3.6812e-06
5.5545e-08
3.69531e-06
8.70251e-08
3.71089e-06
9.59211e-08
3.72959e-06
9.83585e-08
3.7475e-06
1.00763e-07
3.76356e-06
1.02508e-07
3.77833e-06
1.00727e-07
3.79108e-06
9.58137e-08
3.80064e-06
8.73984e-08
3.80809e-06
7.96727e-08
3.81406e-06
7.37117e-08
3.8185e-06
6.78727e-08
3.82111e-06
6.03125e-08
3.82138e-06
5.12725e-08
3.82012e-06
4.33739e-08
3.81787e-06
3.63805e-08
3.81376e-06
2.92086e-08
2.19234e-08
3.80751e-06
3.93732e-06
4.36125e-08
3.94163e-06
8.26897e-08
3.94719e-06
9.03305e-08
3.95526e-06
9.02493e-08
3.96257e-06
9.3417e-08
3.97019e-06
9.48369e-08
3.97834e-06
9.25353e-08
3.98615e-06
8.79519e-08
3.99287e-06
8.06441e-08
3.99927e-06
7.3229e-08
4.00586e-06
6.7074e-08
4.01249e-06
6.11984e-08
4.01857e-06
5.41972e-08
4.02345e-06
4.63453e-08
4.02761e-06
3.91719e-08
4.03127e-06
3.26817e-08
4.03397e-06
2.64555e-08
2.04785e-08
4.03537e-06
4.21516e-06
3.55826e-08
4.22518e-06
7.26649e-08
4.23163e-06
8.38313e-08
4.23713e-06
8.46984e-08
4.24257e-06
8.79452e-08
4.24818e-06
8.91982e-08
4.25375e-06
8.69196e-08
4.25929e-06
8.23709e-08
4.26408e-06
7.58283e-08
4.26831e-06
6.89543e-08
4.27252e-06
6.28288e-08
4.2768e-06
5.68886e-08
4.28073e-06
5.02281e-08
4.28395e-06
4.30937e-08
4.28669e-06
3.6393e-08
4.28909e-06
3.02433e-08
4.29101e-06
2.44978e-08
1.89337e-08
4.29251e-06
4.51651e-06
2.81578e-08
4.52521e-06
6.39593e-08
4.53188e-06
7.71367e-08
4.53689e-06
7.96608e-08
4.54254e-06
8.22623e-08
4.54858e-06
8.31233e-08
4.55441e-06
8.10437e-08
4.55993e-06
7.68141e-08
4.56466e-06
7.10577e-08
4.56879e-06
6.47939e-08
4.5727e-06
5.88768e-08
4.5765e-06
5.30551e-08
4.57991e-06
4.67868e-08
4.58271e-06
4.02571e-08
4.58505e-06
3.40115e-08
4.58703e-06
2.82193e-08
4.58861e-06
2.28792e-08
1.77181e-08
4.58978e-06
4.83781e-06
2.30725e-08
4.84613e-06
5.56351e-08
4.85351e-06
6.97202e-08
4.85895e-06
7.41814e-08
4.86472e-06
7.64751e-08
4.87067e-06
7.71435e-08
4.87634e-06
7.53441e-08
4.88165e-06
7.14783e-08
4.88641e-06
6.62673e-08
4.89064e-06
6.05384e-08
4.89457e-06
5.49096e-08
4.89832e-06
4.92831e-08
4.90169e-06
4.33866e-08
4.90454e-06
3.73707e-08
4.90695e-06
3.15694e-08
4.90898e-06
2.61633e-08
4.91061e-06
2.12144e-08
1.64896e-08
4.91181e-06
5.18353e-06
1.91212e-08
5.19063e-06
4.85293e-08
5.19757e-06
6.27579e-08
5.20371e-06
6.80305e-08
5.20971e-06
7.04507e-08
5.2157e-06
7.11263e-08
5.22148e-06
6.9537e-08
5.22688e-06
6.60531e-08
5.23177e-06
6.13491e-08
5.23618e-06
5.61003e-08
5.24027e-06
5.0787e-08
5.24409e-06
4.54369e-08
5.24753e-06
3.99202e-08
5.2505e-06
3.43683e-08
5.25303e-06
2.90046e-08
5.25517e-06
2.39924e-08
5.25694e-06
1.94148e-08
1.51114e-08
5.25829e-06
5.55443e-06
1.6032e-08
5.5613e-06
4.16453e-08
5.56834e-06
5.56945e-08
5.57458e-06
6.17641e-08
5.58058e-06
6.44318e-08
5.58657e-06
6.51205e-08
5.59237e-06
6.3715e-08
5.5978e-06
6.05955e-08
5.6028e-06
5.63349e-08
5.60736e-06
5.15128e-08
5.6116e-06
4.65303e-08
5.61551e-06
4.14964e-08
5.61905e-06
3.63597e-08
5.62215e-06
3.12392e-08
5.62483e-06
2.63012e-08
5.62711e-06
2.16811e-08
5.62904e-06
1.74606e-08
1.35647e-08
5.63057e-06
5.95217e-06
1.3631e-08
5.95877e-06
3.50248e-08
5.96543e-06
4.90211e-08
5.97184e-06
5.5339e-08
5.97804e-06
5.82136e-08
5.98418e-06
5.8962e-08
5.99011e-06
5.77574e-08
5.99569e-06
5.49905e-08
6.00085e-06
5.11521e-08
6.0056e-06
4.67428e-08
6.00998e-06
4.21214e-08
6.01404e-06
3.74171e-08
6.01771e-06
3.26595e-08
6.02097e-06
2.7956e-08
6.02381e-06
2.34346e-08
6.02626e-06
1.9204e-08
6.02836e-06
1.53364e-08
1.18066e-08
6.0301e-06
6.37918e-06
1.12657e-08
6.38459e-06
2.95914e-08
6.39102e-06
4.25658e-08
6.39747e-06
4.88675e-08
6.40385e-06
5.18131e-08
6.41017e-06
5.26298e-08
6.41628e-06
5.16244e-08
6.42206e-06
4.91887e-08
6.42743e-06
4.57562e-08
6.4324e-06
4.1758e-08
6.43698e-06
3.75167e-08
6.44121e-06
3.31655e-08
6.44505e-06
2.87943e-08
6.44848e-06
2.44969e-08
6.45151e-06
2.03782e-08
6.45416e-06
1.65265e-08
6.45647e-06
1.29952e-08
9.81259e-09
6.45845e-06
5.74258e-06
9.51399e-09
5.74666e-06
2.54973e-08
5.75183e-06
3.73697e-08
5.75722e-06
4.34565e-08
5.76265e-06
4.63566e-08
5.76807e-06
4.71968e-08
5.77334e-06
4.63342e-08
5.77835e-06
4.41511e-08
5.78305e-06
4.10405e-08
5.78741e-06
3.73803e-08
5.79144e-06
3.34592e-08
5.79516e-06
2.94277e-08
5.79856e-06
2.53781e-08
5.80162e-06
2.14182e-08
5.80435e-06
1.76251e-08
5.80677e-06
1.40839e-08
5.80892e-06
1.08352e-08
7.92369e-09
5.81079e-06
6.99988e-06
7.78465e-09
7.00411e-06
2.12486e-08
7.00969e-06
3.177e-08
7.0157e-06
3.74187e-08
7.0219e-06
4.01361e-08
7.02814e-06
4.09399e-08
7.03425e-06
4.02003e-08
7.04011e-06
3.82711e-08
7.04563e-06
3.54993e-08
7.05077e-06
3.221e-08
7.05556e-06
2.86635e-08
7.05997e-06
2.49946e-08
7.06401e-06
2.13239e-08
7.06768e-06
1.77298e-08
7.07099e-06
1.43009e-08
7.07396e-06
1.10944e-08
7.07664e-06
8.14915e-09
5.52253e-09
7.07903e-06
8.53253e-06
6.09796e-09
8.53684e-06
1.69134e-08
8.54276e-06
2.58265e-08
8.54936e-06
3.07931e-08
8.5563e-06
3.31791e-08
8.56336e-06
3.38631e-08
8.57033e-06
3.3206e-08
8.57707e-06
3.15133e-08
8.58346e-06
2.90832e-08
8.58946e-06
2.61913e-08
8.59506e-06
2.3048e-08
8.60025e-06
1.97968e-08
8.60502e-06
1.65363e-08
8.60939e-06
1.3351e-08
8.61336e-06
1.03069e-08
8.61699e-06
7.46153e-09
8.62029e-06
4.83101e-09
2.50396e-09
8.62331e-06
1.04009e-05
4.44589e-09
1.04052e-05
1.25641e-08
1.04114e-05
1.95999e-08
1.04185e-05
2.36184e-08
1.04262e-05
2.55074e-08
1.04341e-05
2.59807e-08
1.04419e-05
2.53452e-08
1.04495e-05
2.38621e-08
1.04568e-05
2.17649e-08
1.04637e-05
1.92764e-08
1.04702e-05
1.6566e-08
1.04762e-05
1.37611e-08
1.04818e-05
1.09441e-08
1.04869e-05
8.19436e-09
1.04917e-05
5.55947e-09
1.0496e-05
3.09173e-09
1.05001e-05
7.92123e-10
-1.23206e-09
1.05038e-05
1.26784e-05
2.82111e-09
1.26827e-05
8.19731e-09
1.26892e-05
1.31256e-08
1.26969e-05
1.59199e-08
1.27052e-05
1.71343e-08
1.27139e-05
1.72827e-08
1.27226e-05
1.66015e-08
1.27312e-05
1.52818e-08
1.27394e-05
1.3501e-08
1.27473e-05
1.14138e-08
1.27547e-05
9.1554e-09
1.27616e-05
6.81612e-09
1.27681e-05
4.47544e-09
1.27741e-05
2.18157e-09
1.27796e-05
-1.56879e-11
1.27848e-05
-2.09007e-09
1.27896e-05
-4.03301e-09
-5.7401e-09
1.27941e-05
1.54548e-05
1.19087e-09
1.54592e-05
3.73769e-09
1.5466e-05
6.34295e-09
1.54742e-05
7.6586e-09
1.54833e-05
8.00594e-09
1.54929e-05
7.71086e-09
1.55026e-05
6.90319e-09
1.55121e-05
5.70113e-09
1.55214e-05
4.20983e-09
1.55303e-05
2.52567e-09
1.55387e-05
7.30084e-10
1.55466e-05
-1.11159e-09
1.5554e-05
-2.95144e-09
1.55609e-05
-4.75099e-09
1.55673e-05
-6.4835e-09
1.55734e-05
-8.12409e-09
1.5579e-05
-9.67849e-09
-1.10291e-08
1.55842e-05
1.88393e-05
-5.09606e-10
1.88441e-05
-1.04255e-09
1.88514e-05
-1.00495e-09
1.88605e-05
-1.40902e-09
1.88705e-05
-2.10399e-09
1.88812e-05
-2.95282e-09
1.8892e-05
-3.9493e-09
1.89027e-05
-5.06376e-09
1.89132e-05
-6.26855e-09
1.89232e-05
-7.53197e-09
1.89328e-05
-8.82826e-09
1.89418e-05
-1.0129e-08
1.89502e-05
-1.14156e-08
1.89581e-05
-1.26676e-08
1.89655e-05
-1.38743e-08
1.89723e-05
-1.50209e-08
1.89788e-05
-1.61159e-08
-1.70481e-08
1.89848e-05
2.29653e-05
-2.45997e-09
2.29709e-05
-6.67547e-09
2.29794e-05
-9.60405e-09
2.299e-05
-1.19777e-08
2.30017e-05
-1.38446e-08
2.3014e-05
-1.53006e-08
2.30265e-05
-1.64812e-08
2.30389e-05
-1.74653e-08
2.30509e-05
-1.83119e-08
2.30624e-05
-1.90682e-08
2.30733e-05
-1.97663e-08
2.30836e-05
-2.04228e-08
2.30932e-05
-2.10473e-08
2.31021e-05
-2.16427e-08
2.31104e-05
-2.22124e-08
2.31181e-05
-2.27547e-08
2.31253e-05
-2.32791e-08
-2.36926e-08
2.31319e-05
1.68123e-05
-4.08704e-09
1.68169e-05
-1.13324e-08
1.68238e-05
-1.6485e-08
1.6832e-05
-2.01973e-08
1.68409e-05
-2.27825e-08
1.68501e-05
-2.45569e-08
1.68594e-05
-2.57583e-08
1.68684e-05
-2.6543e-08
1.68771e-05
-2.7036e-08
1.68854e-05
-2.73502e-08
1.68931e-05
-2.75484e-08
1.69004e-05
-2.7687e-08
1.69071e-05
-2.77819e-08
1.69133e-05
-2.78648e-08
1.6919e-05
-2.79312e-08
1.69242e-05
-2.80025e-08
1.6929e-05
-2.80698e-08
-2.80708e-08
1.69334e-05
1.46363e-05
-5.83008e-09
1.46412e-05
-1.62491e-08
1.46481e-05
-2.34277e-08
1.4656e-05
-2.81743e-08
1.46645e-05
-3.12273e-08
1.4673e-05
-3.31437e-08
1.46815e-05
-3.42307e-08
1.46896e-05
-3.47088e-08
1.46973e-05
-3.47867e-08
1.47046e-05
-3.46187e-08
1.47113e-05
-3.43146e-08
1.47175e-05
-3.39339e-08
1.47232e-05
-3.35258e-08
1.47285e-05
-3.31116e-08
1.47332e-05
-3.27158e-08
1.47376e-05
-3.23378e-08
1.47415e-05
-3.19936e-08
-3.16045e-08
1.4745e-05
1.27422e-05
-7.85603e-09
1.27476e-05
-2.17299e-08
1.27548e-05
-3.06954e-08
1.27628e-05
-3.61144e-08
1.27709e-05
-3.93978e-08
1.2779e-05
-4.12938e-08
1.27869e-05
-4.21308e-08
1.27944e-05
-4.22008e-08
1.28013e-05
-4.17933e-08
1.28078e-05
-4.11146e-08
1.28138e-05
-4.02895e-08
1.28192e-05
-3.93952e-08
1.28241e-05
-3.84897e-08
1.28286e-05
-3.76033e-08
1.28326e-05
-3.67648e-08
1.28363e-05
-3.59735e-08
1.28395e-05
-3.52458e-08
-3.4511e-08
1.28424e-05
1.10934e-05
-1.03736e-08
1.10997e-05
-2.80323e-08
1.11074e-05
-3.83758e-08
1.11153e-05
-4.4068e-08
1.11233e-05
-4.73796e-08
1.11311e-05
-4.91164e-08
1.11385e-05
-4.95709e-08
1.11454e-05
-4.9143e-08
1.11518e-05
-4.82017e-08
1.11576e-05
-4.69839e-08
1.11629e-05
-4.56251e-08
1.11677e-05
-4.42162e-08
1.1172e-05
-4.28139e-08
1.11759e-05
-4.14709e-08
1.11793e-05
-4.02004e-08
1.11823e-05
-3.90243e-08
1.1185e-05
-3.79319e-08
-3.68783e-08
1.11874e-05
9.65851e-06
-1.36745e-08
9.66581e-06
-3.53469e-08
9.67385e-06
-4.64366e-08
9.68178e-06
-5.20129e-08
9.6896e-06
-5.52198e-08
9.69712e-06
-5.66598e-08
9.70415e-06
-5.66157e-08
9.7106e-06
-5.56197e-08
9.71649e-06
-5.41056e-08
9.72181e-06
-5.23276e-08
9.72659e-06
-5.04211e-08
9.73084e-06
-4.84875e-08
9.7346e-06
-4.65941e-08
9.73791e-06
-4.47983e-08
9.74081e-06
-4.31227e-08
9.74335e-06
-4.15766e-08
9.74556e-06
-4.01603e-08
-3.88145e-08
9.74749e-06
8.40981e-06
-1.81335e-08
8.41825e-06
-4.3809e-08
8.42657e-06
-5.4775e-08
8.43447e-06
-5.99276e-08
8.4422e-06
-6.29632e-08
8.44953e-06
-6.40038e-08
8.45626e-06
-6.3367e-08
8.46238e-06
-6.17513e-08
8.46789e-06
-5.9631e-08
8.47281e-06
-5.72592e-08
8.47715e-06
-5.47837e-08
8.48096e-06
-5.2314e-08
8.48428e-06
-4.99317e-08
8.48716e-06
-4.76921e-08
8.48964e-06
-4.56241e-08
8.49179e-06
-4.373e-08
8.49362e-06
-4.2017e-08
-4.03798e-08
8.49518e-06
7.32328e-06
-2.41327e-08
7.33307e-06
-5.36161e-08
7.34178e-06
-6.34945e-08
7.34985e-06
-6.80207e-08
7.35768e-06
-7.081e-08
7.36501e-06
-7.13436e-08
7.37168e-06
-7.0049e-08
7.37768e-06
-6.77746e-08
7.38305e-06
-6.5013e-08
7.3878e-06
-6.20141e-08
7.39194e-06
-5.8936e-08
7.39552e-06
-5.59152e-08
7.39861e-06
-5.30339e-08
7.40126e-06
-5.03548e-08
7.40353e-06
-4.79026e-08
7.40547e-06
-4.56817e-08
7.40714e-06
-4.37017e-08
-4.18398e-08
7.40858e-06
6.37841e-06
-3.24792e-08
6.3902e-06
-6.54216e-08
6.40007e-06
-7.33799e-08
6.40931e-06
-7.72857e-08
6.41811e-06
-7.96202e-08
6.42618e-06
-7.9422e-08
6.43345e-06
-7.73301e-08
6.43994e-06
-7.42773e-08
6.44567e-06
-7.07632e-08
6.45068e-06
-6.70323e-08
6.45501e-06
-6.32787e-08
6.45873e-06
-5.96413e-08
6.4619e-06
-5.62207e-08
6.46463e-06
-5.30952e-08
6.46699e-06
-5.0275e-08
6.46908e-06
-4.77738e-08
6.47093e-06
-4.5565e-08
-4.35285e-08
6.47259e-06
5.56123e-06
-4.82506e-08
5.57782e-06
-8.2023e-08
5.59231e-06
-8.7895e-08
5.60606e-06
-9.10636e-08
5.61856e-06
-9.21359e-08
5.62944e-06
-9.03156e-08
5.6387e-06
-8.65971e-08
5.6464e-06
-8.19913e-08
5.65264e-06
-7.70156e-08
5.65757e-06
-7.1984e-08
5.66138e-06
-6.70988e-08
5.66423e-06
-6.25043e-08
5.66628e-06
-5.82749e-08
5.66765e-06
-5.44712e-08
5.66844e-06
-5.10821e-08
5.66873e-06
-4.80698e-08
5.66862e-06
-4.54724e-08
-4.34413e-08
5.66852e-06
4.87799e-06
-9.864e-08
4.91465e-06
-1.18703e-07
4.94015e-06
-1.13422e-07
4.95635e-06
-1.07291e-07
4.9643e-06
-1.00103e-07
4.9653e-06
-9.13304e-08
4.96071e-06
-8.20264e-08
4.9517e-06
-7.30005e-08
4.93932e-06
-6.4644e-08
4.92443e-06
-5.71148e-08
4.90773e-06
-5.04181e-08
4.88975e-06
-4.45339e-08
4.87092e-06
-3.94534e-08
4.85154e-06
-3.51006e-08
4.83194e-06
-3.14889e-08
4.81249e-06
-2.86387e-08
4.79341e-06
-2.64042e-08
-2.51553e-08
4.7751e-06
4.10404e-06
3.98533e-06
3.87191e-06
3.76461e-06
3.66451e-06
3.57318e-06
3.49115e-06
3.41815e-06
3.3535e-06
3.29638e-06
3.24596e-06
3.20143e-06
3.16197e-06
3.12687e-06
3.09538e-06
3.06673e-06
3.04033e-06
3.01517e-06
-1.91725e-08
2.03878e-08
-4.19773e-08
2.48096e-08
-8.77626e-08
4.69335e-08
-1.44093e-07
5.75961e-08
-2.06155e-07
6.27217e-08
-2.69152e-07
6.397e-08
-3.31622e-07
6.28561e-08
-3.91411e-07
6.06217e-08
-4.49367e-07
5.82173e-08
-5.0487e-07
5.62313e-08
-5.59789e-07
5.50754e-08
-6.14212e-07
5.50374e-08
-6.70552e-07
5.63939e-08
-7.29237e-07
5.91645e-08
-7.92392e-07
6.31075e-08
-8.60009e-07
6.79837e-08
-9.33592e-07
7.34327e-08
-1.01236e-06
7.90912e-08
-1.09693e-06
8.44354e-08
-1.18536e-06
8.87867e-08
-1.27685e-06
9.13707e-08
-1.36827e-06
9.18839e-08
-1.45887e-06
9.05936e-08
-1.54679e-06
8.85013e-08
-1.63213e-06
8.53805e-08
-1.71229e-06
8.07696e-08
-1.78734e-06
7.5037e-08
-1.8552e-06
6.84499e-08
-1.91647e-06
6.12104e-08
-1.96948e-06
5.35219e-08
-2.01521e-06
4.54882e-08
-2.05208e-06
3.72244e-08
-2.08118e-06
2.87256e-08
-2.10124e-06
2.0182e-08
-2.11352e-06
1.16949e-08
-2.11731e-06
3.71471e-09
-2.11399e-06
-4.00836e-09
-2.10222e-06
-1.19015e-08
-2.08251e-06
-2.03756e-08
-2.05318e-06
-2.94502e-08
-2.01446e-06
-3.93433e-08
-1.96426e-06
-5.03271e-08
-1.90244e-06
-6.24235e-08
-1.82725e-06
-7.53806e-08
-1.73782e-06
-9.00823e-08
-1.63197e-06
-1.06171e-07
-1.51121e-06
-1.2148e-07
-1.37439e-06
-1.37259e-07
-1.21932e-06
-1.55875e-07
-1.04797e-06
-1.71728e-07
-8.64461e-07
-1.84411e-07
-6.56322e-07
-2.08459e-07
-4.10577e-07
-2.46605e-07
-1.4124e-07
-2.69705e-07
1.3132e-07
-2.73447e-07
3.9937e-07
-2.68634e-07
6.57537e-07
-2.59088e-07
9.0293e-07
-2.4615e-07
1.13193e-06
-2.29937e-07
1.3417e-06
-2.10603e-07
1.52631e-06
-1.85511e-07
1.6755e-06
-1.50048e-07
1.77564e-06
-1.01015e-07
1.81796e-06
-4.31858e-08
1.80018e-06
1.69091e-08
1.72492e-06
7.43218e-08
1.60055e-06
1.23428e-07
1.43986e-06
1.59555e-07
1.25864e-06
1.80146e-07
1.06857e-06
1.88592e-07
8.84045e-07
1.83167e-07
7.18652e-07
1.63301e-07
5.72702e-07
1.44016e-07
4.32888e-07
1.36242e-07
2.97532e-07
1.31901e-07
1.80067e-07
1.11603e-07
1.13207e-07
6.27876e-08
9.76135e-08
1.114e-08
1.44569e-07
-4.90995e-08
2.36047e-07
-9.41811e-08
3.11628e-07
-7.71067e-08
3.57391e-07
-4.79837e-08
2.79694e-07
7.64636e-08
2.06786e-07
7.12141e-08
4.75e-08
1.58271e-07
-3.55568e-07
4.02053e-07
-9.53916e-07
5.97745e-07
-1.63659e-06
6.82004e-07
-2.32315e-06
6.85979e-07
-2.96801e-06
6.43992e-07
-3.5496e-06
5.80487e-07
-4.06122e-06
5.10232e-07
-4.50453e-06
4.41809e-07
-4.88529e-06
3.79113e-07
-5.21095e-06
3.24004e-07
-5.48851e-06
2.75785e-07
-5.72431e-06
2.34028e-07
-5.9235e-06
1.97305e-07
-6.09018e-06
1.64781e-07
-6.22741e-06
1.35189e-07
-6.33749e-06
1.07986e-07
-6.42246e-06
8.26325e-08
-6.48397e-06
5.9146e-08
-6.524e-06
3.74552e-08
-6.54441e-06
1.81122e-08
-6.54852e-06
1.85626e-09
-6.53859e-06
-1.16202e-08
-6.51603e-06
-2.40938e-08
-6.48123e-06
-3.57399e-08
-6.43509e-06
-4.69547e-08
-6.37781e-06
-5.75658e-08
-6.3103e-06
-6.77209e-08
-6.23284e-06
-7.72285e-08
-6.14627e-06
-8.62953e-08
-6.05107e-06
-9.45653e-08
-5.94808e-06
-1.02328e-07
-5.838e-06
-1.09146e-07
-5.72172e-06
-1.15335e-07
-5.59969e-06
-1.20928e-07
-5.47264e-06
-1.26005e-07
-5.34112e-06
-1.30473e-07
-5.20627e-06
-1.33883e-07
-5.06816e-06
-1.37154e-07
-4.92746e-06
-1.39724e-07
-4.78551e-06
-1.40961e-07
-4.64238e-06
-1.42097e-07
-4.49883e-06
-1.42602e-07
-4.3562e-06
-1.41679e-07
-4.21477e-06
-1.40645e-07
-4.07558e-06
-1.38431e-07
-3.93952e-06
-1.35518e-07
-3.80708e-06
-1.31938e-07
-3.67904e-06
-1.27751e-07
-3.55563e-06
-1.23174e-07
-3.43718e-06
-1.18378e-07
-3.32369e-06
-1.13467e-07
-3.21504e-06
-1.08726e-07
-3.11082e-06
-1.04291e-07
-3.01063e-06
-1.00239e-07
-2.91395e-06
-9.66233e-08
-2.82038e-06
-9.34379e-08
-2.72922e-06
-9.0898e-08
-2.63952e-06
-8.93603e-08
-2.55036e-06
-8.87233e-08
-2.46108e-06
-8.87942e-08
-2.37058e-06
-8.99366e-08
-2.2777e-06
-9.23072e-08
-2.18124e-06
-9.58134e-08
-2.08019e-06
-1.00422e-07
-1.97388e-06
-1.05629e-07
-1.8618e-06
-1.11403e-07
-1.7436e-06
-1.17476e-07
-1.619e-06
-1.23864e-07
-1.48773e-06
-1.30481e-07
-1.35006e-06
-1.36841e-07
-1.20644e-06
-1.42725e-07
-1.05777e-06
-1.47722e-07
-9.04429e-07
-1.52283e-07
-7.46498e-07
-1.56786e-07
-5.85058e-07
-1.60153e-07
-4.21337e-07
-1.62341e-07
-2.5164e-07
-1.68206e-07
-6.81249e-08
-1.82041e-07
1.2959e-07
-1.9633e-07
3.32275e-07
-2.01493e-07
5.33571e-07
-2.00179e-07
7.30158e-07
-1.95657e-07
9.20221e-07
-1.89193e-07
1.10255e-06
-1.81654e-07
1.27662e-06
-1.73444e-07
1.44184e-06
-1.64774e-07
1.5974e-06
-1.55126e-07
1.74241e-06
-1.44706e-07
1.87596e-06
-1.3324e-07
1.99714e-06
-1.20953e-07
2.10455e-06
-1.07215e-07
2.19494e-06
-9.03251e-08
2.26355e-06
-6.85819e-08
2.28594e-06
-2.24467e-08
7.17637e-08
2.21413e-06
-5.01546e-08
7.15278e-08
-1.26536e-07
1.02642e-07
-1.95893e-07
1.17073e-07
-2.59338e-07
1.2193e-07
-3.18202e-07
1.22059e-07
-3.73624e-07
1.2009e-07
-4.27841e-07
1.17412e-07
-4.81673e-07
1.1506e-07
-5.36852e-07
1.13647e-07
-5.93532e-07
1.13441e-07
-6.52778e-07
1.14505e-07
-7.14123e-07
1.1682e-07
-7.78015e-07
1.20394e-07
-8.4363e-07
1.25113e-07
-9.11206e-07
1.30705e-07
-9.79783e-07
1.368e-07
-1.04933e-06
1.42922e-07
-1.1185e-06
1.48445e-07
-1.18686e-06
1.52724e-07
-1.25307e-06
1.55188e-07
-1.31723e-06
1.55479e-07
-1.37858e-06
1.5346e-07
-1.43727e-06
1.49289e-07
-1.49174e-06
1.43271e-07
-1.54212e-06
1.35789e-07
-1.58811e-06
1.2706e-07
-1.63042e-06
1.17359e-07
-1.66869e-06
1.07042e-07
-1.70371e-06
9.62235e-08
-1.73502e-06
8.50657e-08
-1.76322e-06
7.36143e-08
-1.78772e-06
6.1878e-08
-1.80895e-06
4.97873e-08
-1.82591e-06
3.71541e-08
-1.83817e-06
2.36932e-08
-1.84377e-06
9.20887e-09
-1.84142e-06
-6.66694e-09
-1.8294e-06
-2.40704e-08
-1.8069e-06
-4.31807e-08
-1.77239e-06
-6.41027e-08
-1.72508e-06
-8.69277e-08
-1.66381e-06
-1.11756e-07
-1.58784e-06
-1.38663e-07
-1.4959e-06
-1.6751e-07
-1.38802e-06
-1.98246e-07
-1.2638e-06
-2.30649e-07
-1.12163e-06
-2.63977e-07
-9.61585e-07
-2.97588e-07
-7.86521e-07
-3.31271e-07
-5.94979e-07
-3.6354e-07
-3.8592e-07
-3.93749e-07
-1.72768e-07
-4.21817e-07
2.7472e-08
-4.47121e-07
2.22276e-07
-4.64766e-07
4.2079e-07
-4.7232e-07
6.22361e-07
-4.7057e-07
8.23084e-07
-4.60261e-07
1.01835e-06
-4.41882e-07
1.20365e-06
-4.15755e-07
1.37485e-06
-3.82322e-07
1.53045e-06
-3.41666e-07
1.67303e-06
-2.93196e-07
1.80734e-06
-2.35906e-07
1.93057e-06
-1.67014e-07
2.03262e-06
-8.57603e-08
2.09976e-06
6.53521e-09
2.11792e-06
1.04609e-07
2.077e-06
1.99762e-07
1.97643e-06
2.79992e-07
1.82826e-06
3.35945e-07
1.64766e-06
3.62917e-07
1.44404e-06
3.65875e-07
1.23448e-06
3.52443e-07
1.04774e-06
3.21587e-07
9.01831e-07
2.76276e-07
7.92093e-07
2.19439e-07
7.27711e-07
1.25515e-07
7.52069e-07
-1.46738e-08
8.36168e-07
-1.34343e-07
9.0077e-07
-1.60059e-07
8.59041e-07
-3.65375e-08
6.13214e-07
1.96712e-07
8.75467e-08
6.01499e-07
-8.04573e-07
9.629e-07
-1.81747e-06
1.17082e-06
-2.69977e-06
1.28396e-06
-3.40546e-06
1.3031e-06
-3.96254e-06
1.23876e-06
-4.4028e-06
1.12579e-06
-4.752e-06
9.92713e-07
-5.03179e-06
8.59471e-07
-5.25946e-06
7.36927e-07
-5.44797e-06
6.29154e-07
-5.6066e-06
5.3651e-07
-5.74132e-06
4.5736e-07
-5.8563e-06
3.89372e-07
-5.95421e-06
3.30414e-07
-6.03687e-06
2.78425e-07
-6.10579e-06
2.32017e-07
-6.16233e-06
1.90006e-07
-6.20788e-06
1.51615e-07
-6.24344e-06
1.16212e-07
-6.26989e-06
8.33695e-08
-6.28723e-06
5.26549e-08
-6.29508e-06
2.38198e-08
-6.29179e-06
-3.2156e-09
-6.27625e-06
-2.87375e-08
-6.24841e-06
-5.30748e-08
-6.20891e-06
-7.61635e-08
-6.15824e-06
-9.81653e-08
-6.09709e-06
-1.19065e-07
-6.02608e-06
-1.38778e-07
-5.94594e-06
-1.5726e-07
-5.85718e-06
-1.74715e-07
-5.76049e-06
-1.90788e-07
-5.65655e-06
-2.05633e-07
-5.54585e-06
-2.19105e-07
-5.42907e-06
-2.31267e-07
-5.30693e-06
-2.42169e-07
-5.18024e-06
-2.51798e-07
-5.04962e-06
-2.60224e-07
-4.91546e-06
-2.67233e-07
-4.77876e-06
-2.73033e-07
-4.63995e-06
-2.77715e-07
-4.4992e-06
-2.80844e-07
-4.35767e-06
-2.82779e-07
-4.21592e-06
-2.83528e-07
-4.07424e-06
-2.82582e-07
-3.9338e-06
-2.80392e-07
-3.79501e-06
-2.76617e-07
-3.65879e-06
-2.71234e-07
-3.52587e-06
-2.6447e-07
-3.39688e-06
-2.56467e-07
-3.27233e-06
-2.47534e-07
-3.15263e-06
-2.38003e-07
-3.03793e-06
-2.28153e-07
-2.92827e-06
-2.18439e-07
-2.82342e-06
-2.09195e-07
-2.723e-06
-2.00677e-07
-2.62653e-06
-1.93045e-07
-2.53332e-06
-1.86508e-07
-2.4426e-06
-1.81414e-07
-2.3535e-06
-1.78174e-07
-2.26496e-06
-1.76905e-07
-2.17576e-06
-1.77586e-07
-2.0847e-06
-1.80533e-07
-1.99048e-06
-1.86032e-07
-1.8918e-06
-1.93951e-07
-1.7875e-06
-2.04182e-07
-1.6763e-06
-2.16243e-07
-1.55777e-06
-2.29355e-07
-1.43107e-06
-2.43549e-07
-1.2962e-06
-2.58105e-07
-1.15317e-06
-2.72825e-07
-1.00222e-06
-2.871e-07
-8.43807e-07
-3.00363e-07
-6.78234e-07
-3.12504e-07
-5.05802e-07
-3.23822e-07
-3.26468e-07
-3.35215e-07
-1.37562e-07
-3.4808e-07
6.33852e-08
-3.62377e-07
2.72141e-07
-3.76069e-07
4.80069e-07
-3.89159e-07
6.83464e-07
-3.98922e-07
8.84522e-07
-4.01816e-07
1.08359e-06
-3.98536e-07
1.27921e-06
-3.90636e-07
1.46994e-06
-3.79331e-07
1.65467e-06
-3.6589e-07
1.8324e-06
-3.50721e-07
2.00189e-06
-3.339e-07
2.16222e-06
-3.15117e-07
2.31249e-06
-2.9469e-07
2.45206e-06
-2.72526e-07
2.57998e-06
-2.48621e-07
2.69493e-06
-2.21939e-07
2.79511e-06
-1.90384e-07
2.8754e-06
-1.48799e-07
2.93736e-06
-8.43993e-08
3.23716e-08
2.97681e-06
-4.77227e-08
1.19868e-07
-1.12114e-07
1.67874e-07
-1.62587e-07
1.67981e-07
-2.0329e-07
1.6311e-07
-2.38247e-07
1.57276e-07
-2.7007e-07
1.52311e-07
-3.0154e-07
1.4907e-07
-3.34112e-07
1.48001e-07
-3.69488e-07
1.49181e-07
-4.08193e-07
1.52492e-07
-4.51212e-07
1.57647e-07
-4.98325e-07
1.64245e-07
-5.4969e-07
1.71837e-07
-6.04243e-07
1.79919e-07
-6.61495e-07
1.87975e-07
-7.20044e-07
1.95531e-07
-7.79316e-07
2.02153e-07
-8.38159e-07
2.07409e-07
-8.96428e-07
2.1092e-07
-9.53535e-07
2.12402e-07
-1.00984e-06
2.11709e-07
-1.06508e-06
2.08809e-07
-1.11966e-06
2.03828e-07
-1.17319e-06
1.96934e-07
-1.22592e-06
1.88482e-07
-1.27742e-06
1.787e-07
-1.32795e-06
1.67859e-07
-1.37688e-06
1.5612e-07
-1.42418e-06
1.43502e-07
-1.46906e-06
1.30073e-07
-1.51125e-06
1.1576e-07
-1.54971e-06
1.00424e-07
-1.58384e-06
8.38439e-08
-1.6124e-06
6.5733e-08
-1.63459e-06
4.57631e-08
-1.64911e-06
2.36813e-08
-1.65514e-06
-7.78698e-10
-1.65148e-06
-2.78077e-08
-1.63726e-06
-5.75435e-08
-1.61139e-06
-9.00633e-08
-1.57308e-06
-1.25381e-07
-1.52147e-06
-1.6346e-07
-1.45606e-06
-2.04223e-07
-1.37622e-06
-2.47476e-07
-1.28173e-06
-2.92905e-07
-1.17247e-06
-3.40071e-07
-1.0482e-06
-3.88442e-07
-9.08839e-07
-4.37145e-07
-7.55943e-07
-4.84373e-07
-5.91172e-07
-5.28507e-07
-4.15431e-07
-5.69692e-07
-2.32221e-07
-6.05222e-07
-4.59995e-08
-6.33561e-07
1.42326e-07
-6.53327e-07
3.33027e-07
-6.63299e-07
5.2496e-07
-6.62804e-07
7.16063e-07
-6.51704e-07
9.0362e-07
-6.298e-07
1.08413e-06
-5.96645e-07
1.25384e-06
-5.52431e-07
1.40954e-06
-4.97765e-07
1.54986e-06
-4.33922e-07
1.67508e-06
-3.61545e-07
1.78728e-06
-2.79652e-07
1.88842e-06
-1.87366e-07
1.97774e-06
-8.32935e-08
2.04977e-06
3.20502e-08
2.09386e-06
1.55102e-07
2.09693e-06
2.76346e-07
2.05129e-06
3.80962e-07
1.9567e-06
4.56858e-07
1.82423e-06
4.97649e-07
1.67802e-06
4.97893e-07
1.53898e-06
4.5976e-07
1.41334e-06
4.00931e-07
1.32017e-06
3.11515e-07
1.30041e-06
1.44257e-07
1.35016e-06
-6.53343e-08
1.41977e-06
-2.04936e-07
1.21004e-06
4.87597e-08
5.46236e-07
6.26603e-07
-5.20828e-07
1.26337e-06
-1.56772e-06
1.64811e-06
-2.42206e-06
1.81697e-06
-3.08769e-06
1.83614e-06
-3.57261e-06
1.76856e-06
-3.91641e-06
1.64661e-06
-4.17076e-06
1.49281e-06
-4.37418e-06
1.32898e-06
-4.5515e-06
1.16961e-06
-4.71518e-06
1.02259e-06
-4.87025e-06
8.91289e-07
-5.01715e-06
7.75206e-07
-5.15537e-06
6.73797e-07
-5.28337e-06
5.84329e-07
-5.40015e-06
5.05048e-07
-5.50491e-06
4.33966e-07
-5.5972e-06
3.69456e-07
-5.67696e-06
3.10393e-07
-5.7441e-06
2.55721e-07
-5.79876e-06
2.04656e-07
-5.84089e-06
1.56667e-07
-5.87066e-06
1.11264e-07
-5.88791e-06
6.81336e-08
-5.89278e-06
2.69201e-08
-5.88515e-06
-1.22602e-08
-5.86545e-06
-4.97149e-08
-5.83387e-06
-8.55288e-08
-5.79111e-06
-1.19669e-07
-5.73771e-06
-1.51937e-07
-5.67457e-06
-1.8249e-07
-5.60216e-06
-2.11162e-07
-5.52131e-06
-2.38018e-07
-5.43247e-06
-2.63213e-07
-5.33619e-06
-2.8667e-07
-5.23291e-06
-3.08332e-07
-5.12317e-06
-3.28236e-07
-5.0076e-06
-3.46092e-07
-4.88705e-06
-3.61971e-07
-4.76228e-06
-3.75805e-07
-4.63399e-06
-3.87781e-07
-4.50278e-06
-3.9774e-07
-4.36933e-06
-4.05776e-07
-4.23397e-06
-4.12359e-07
-4.09714e-06
-4.1693e-07
-3.95965e-06
-4.1956e-07
-3.82189e-06
-4.20573e-07
-3.68445e-06
-4.19394e-07
-3.54824e-06
-4.16006e-07
-3.41377e-06
-4.10605e-07
-3.2817e-06
-4.02879e-07
-3.15257e-06
-3.93311e-07
-3.02686e-06
-3.81947e-07
-2.90515e-06
-3.6914e-07
-2.78787e-06
-3.5523e-07
-2.67544e-06
-3.40615e-07
-2.56815e-06
-3.25798e-07
-2.46609e-06
-3.11355e-07
-2.36904e-06
-2.97783e-07
-2.27649e-06
-2.85606e-07
-2.18761e-06
-2.75317e-07
-2.10153e-06
-2.67376e-07
-2.01721e-06
-2.62302e-07
-1.93322e-06
-2.6067e-07
-1.84791e-06
-2.62611e-07
-1.75995e-06
-2.68201e-07
-1.6677e-06
-2.77961e-07
-1.5698e-06
-2.91524e-07
-1.46505e-06
-3.0858e-07
-1.35236e-06
-3.28585e-07
-1.23098e-06
-3.50362e-07
-1.10033e-06
-3.73825e-07
-9.60337e-07
-3.97682e-07
-8.11098e-07
-4.21639e-07
-6.52737e-07
-4.44974e-07
-4.85424e-07
-4.67176e-07
-3.09293e-07
-4.88086e-07
-1.23946e-07
-5.08629e-07
7.08673e-08
-5.29483e-07
2.73119e-07
-5.49828e-07
4.79519e-07
-5.68285e-07
6.87431e-07
-5.83517e-07
8.93783e-07
-5.95056e-07
1.09689e-06
-6.01585e-07
1.29696e-06
-6.01467e-07
1.49359e-06
-5.94756e-07
1.68585e-06
-5.82524e-07
1.87271e-06
-5.65839e-07
2.05322e-06
-5.461e-07
2.22645e-06
-5.23673e-07
2.39152e-06
-4.98761e-07
2.54791e-06
-4.7131e-07
2.69504e-06
-4.41669e-07
2.83235e-06
-4.09705e-07
2.95889e-06
-3.75054e-07
3.07348e-06
-3.36439e-07
3.17444e-06
-2.91301e-07
3.25963e-06
-2.33953e-07
3.32934e-06
-1.54088e-07
-3.10364e-08
3.39279e-06
-3.95058e-08
1.59782e-07
-7.95714e-08
2.08418e-07
-1.0873e-07
1.97379e-07
-1.31316e-07
1.85967e-07
-1.50907e-07
1.77005e-07
-1.69386e-07
1.71013e-07
-1.88419e-07
1.68216e-07
-2.08874e-07
1.68671e-07
-2.31843e-07
1.72241e-07
-2.57765e-07
1.78626e-07
-2.87422e-07
1.8738e-07
-3.20923e-07
1.97947e-07
-3.58707e-07
2.09671e-07
-4.00443e-07
2.21829e-07
-4.46136e-07
2.3368e-07
-4.95017e-07
2.44542e-07
-5.4674e-07
2.53842e-07
-6.00388e-07
2.61144e-07
-6.55697e-07
2.66162e-07
-7.12001e-07
2.68761e-07
-7.69292e-07
2.68923e-07
-8.27153e-07
2.66718e-07
-8.85708e-07
2.62306e-07
-9.44608e-07
2.55885e-07
-1.0039e-06
2.47708e-07
-1.06311e-06
2.37972e-07
-1.12217e-06
2.2686e-07
-1.18041e-06
2.14431e-07
-1.23763e-06
2.00681e-07
-1.29303e-06
1.85541e-07
-1.34615e-06
1.6884e-07
-1.396e-06
1.50342e-07
-1.44195e-06
1.29744e-07
-1.48289e-06
1.0671e-07
-1.51809e-06
8.0903e-08
-1.54641e-06
5.20041e-08
-1.56702e-06
1.97622e-08
-1.57886e-06
-1.5992e-08
-1.58109e-06
-5.53922e-08
-1.57271e-06
-9.8485e-08
-1.55296e-06
-1.4522e-07
-1.52102e-06
-1.95456e-07
-1.47639e-06
-2.48958e-07
-1.41856e-06
-3.05385e-07
-1.34734e-06
-3.64255e-07
-1.26261e-06
-4.24921e-07
-1.16452e-06
-4.86691e-07
-1.05309e-06
-5.48716e-07
-9.28348e-07
-6.09291e-07
-7.89797e-07
-6.6723e-07
-6.37747e-07
-7.21945e-07
-4.7257e-07
-7.70608e-07
-2.95559e-07
-8.10817e-07
-1.09618e-07
-8.39529e-07
8.23884e-08
-8.55598e-07
2.77663e-07
-8.58391e-07
4.73189e-07
-8.47562e-07
6.65712e-07
-8.22667e-07
8.52774e-07
-7.84058e-07
1.0321e-06
-7.32115e-07
1.20058e-06
-6.66599e-07
1.3546e-06
-5.88299e-07
1.49128e-06
-4.98585e-07
1.61032e-06
-3.99059e-07
1.71307e-06
-2.90504e-07
1.80198e-06
-1.7261e-07
1.8788e-06
-4.52038e-08
1.94336e-06
9.00769e-08
1.98964e-06
2.29561e-07
2.00666e-06
3.63401e-07
1.9869e-06
4.76069e-07
1.93442e-06
5.4952e-07
1.85842e-06
5.73233e-07
1.757e-06
5.60444e-07
1.63604e-06
5.21048e-07
1.55433e-06
3.92335e-07
1.5651e-06
1.32626e-07
1.56496e-06
-6.61025e-08
1.1628e-06
1.96419e-07
2.20193e-07
9.90851e-07
-8.98695e-07
1.74517e-06
-1.79382e-06
2.15824e-06
-2.44501e-06
2.29906e-06
-2.90837e-06
2.28007e-06
-3.24249e-06
2.16997e-06
-3.48825e-06
2.01403e-06
-3.68029e-06
1.83838e-06
-3.84713e-06
1.65945e-06
-4.00512e-06
1.48672e-06
-4.16113e-06
1.3254e-06
-4.31627e-06
1.17738e-06
-4.46869e-06
1.04321e-06
-4.61564e-06
9.21564e-07
-4.75457e-06
8.12036e-07
-4.88348e-06
7.12463e-07
-5.00108e-06
6.21769e-07
-5.10638e-06
5.38313e-07
-5.19887e-06
4.60888e-07
-5.27815e-06
3.88537e-07
-5.34414e-06
3.20454e-07
-5.39686e-06
2.56018e-07
-5.43651e-06
1.94809e-07
-5.46314e-06
1.36345e-07
-5.47702e-06
8.04438e-08
-5.47832e-06
2.68132e-08
-5.46729e-06
-2.45146e-08
-5.4444e-06
-7.35883e-08
-5.41024e-06
-1.20453e-07
-5.36527e-06
-1.65178e-07
-5.31013e-06
-2.0742e-07
-5.2454e-06
-2.47382e-07
-5.17161e-06
-2.84943e-07
-5.0894e-06
-3.20085e-07
-4.99945e-06
-3.52894e-07
-4.90228e-06
-3.83466e-07
-4.79856e-06
-4.1157e-07
-4.68897e-06
-4.37267e-07
-4.57419e-06
-4.6025e-07