/*--------------------------------*- C++ -*----------------------------------*\
  =========                 |
  \\      /  F ield         | OpenFOAM: The Open Source CFD Toolbox
   \\    /   O peration     | Website:  https://openfoam.org
    \\  /    A nd           | Version:  13
     \\/     M anipulation  |
\*---------------------------------------------------------------------------*/
FoamFile
{
    format      ascii;
    class       volVectorField;
    location    "100";
    object      U;
}
// * * * * * * * * * * * * * * * * * * * * * * * * * * * * * * * * * * * * * //

dimensions      [0 1 -1 0 0 0 0];

internalField   nonuniform List<vector> 
12225
(
(9.78518 0.0470779 0)
(9.30584 0.0989635 0)
(8.8447 0.10817 0)
(8.40863 0.0975794 0)
(8.01877 0.08333 0)
(7.66242 0.0741008 0)
(7.33902 0.0742796 0)
(7.04938 0.0664461 0)
(6.80644 0.0489229 0)
(6.60396 0.0468596 0)
(6.4468 0.0448804 0)
(6.31374 0.0381889 0)
(6.20507 0.0266074 0)
(6.12171 0.00782592 0)
(6.06314 -0.00232633 0)
(6.03096 -0.00318102 0)
(6.02152 -0.00912793 0)
(6.02605 -0.00798768 0)
(10.0729 0.0576839 0)
(10.2745 0.0873777 0)
(10.4269 0.0907152 0)
(10.4835 0.0913083 0)
(10.4945 0.0926436 0)
(10.4771 0.0920776 0)
(10.4374 0.0878048 0)
(10.372 0.085498 0)
(10.2988 0.0801264 0)
(10.2205 0.0686829 0)
(10.1204 0.0623841 0)
(10.0224 0.0597459 0)
(9.92038 0.0558394 0)
(9.83281 0.0502543 0)
(9.75069 0.0427958 0)
(9.66991 0.0332781 0)
(9.58866 0.023451 0)
(9.51569 0.0102794 0)
(10.0157 0.0446706 0)
(10.067 0.0635545 0)
(10.11 0.0703123 0)
(10.1593 0.0754838 0)
(10.2074 0.080176 0)
(10.2542 0.0872811 0)
(10.2976 0.0930258 0)
(10.335 0.0926717 0)
(10.3655 0.0875847 0)
(10.3887 0.0836038 0)
(10.4066 0.0804901 0)
(10.4206 0.0768729 0)
(10.4302 0.0714368 0)
(10.4342 0.064138 0)
(10.4331 0.0569988 0)
(10.4279 0.0501115 0)
(10.4196 0.0420351 0)
(10.4048 0.0313147 0)
(10.011 0.0315947 0)
(10.0352 0.0546225 0)
(10.0459 0.0620074 0)
(10.0686 0.0664805 0)
(10.0854 0.0749067 0)
(10.1035 0.080321 0)
(10.1247 0.0776869 0)
(10.145 0.0741586 0)
(10.1634 0.0702046 0)
(10.1802 0.065921 0)
(10.1965 0.0621834 0)
(10.2132 0.05847 0)
(10.2296 0.0531415 0)
(10.2438 0.0462997 0)
(10.2553 0.0400046 0)
(10.2653 0.034184 0)
(10.2735 0.0278805 0)
(10.279 0.0212672 0)
(10.005 0.0241645 0)
(10.0274 0.0469073 0)
(10.0516 0.0569902 0)
(10.0665 0.0603691 0)
(10.0784 0.0640621 0)
(10.0906 0.0666976 0)
(10.1038 0.06907 0)
(10.1174 0.0691714 0)
(10.13 0.066267 0)
(10.1407 0.0630794 0)
(10.1504 0.0604513 0)
(10.1603 0.0575917 0)
(10.1702 0.0533957 0)
(10.1788 0.0479458 0)
(10.1859 0.0425332 0)
(10.1921 0.0372153 0)
(10.1973 0.0316665 0)
(10.2011 0.0259778 0)
(10.0088 0.0193041 0)
(10.0243 0.0444204 0)
(10.0432 0.0551563 0)
(10.057 0.0585532 0)
(10.0682 0.062859 0)
(10.0806 0.0657707 0)
(10.0937 0.0665651 0)
(10.1068 0.0662133 0)
(10.1184 0.0643473 0)
(10.1281 0.0613304 0)
(10.1367 0.0582307 0)
(10.1452 0.0548216 0)
(10.1532 0.0503482 0)
(10.1602 0.0450062 0)
(10.166 0.039539 0)
(10.1708 0.0341191 0)
(10.1749 0.0287285 0)
(10.1776 0.0230893 0)
(10.0045 0.016489 0)
(10.0178 0.0393818 0)
(10.0352 0.0499759 0)
(10.0493 0.0548927 0)
(10.0605 0.0589425 0)
(10.0721 0.0623954 0)
(10.0842 0.0640871 0)
(10.0958 0.0633952 0)
(10.1064 0.0609056 0)
(10.1157 0.0577763 0)
(10.1239 0.0545613 0)
(10.1318 0.0509801 0)
(10.1392 0.0466915 0)
(10.1457 0.0418308 0)
(10.1512 0.0367679 0)
(10.1558 0.0317204 0)
(10.1597 0.0267673 0)
(10.1623 0.021618 0)
(10.0014 0.014162 0)
(10.014 0.0345341 0)
(10.0271 0.0457196 0)
(10.0412 0.051015 0)
(10.0526 0.0549967 0)
(10.0638 0.0577867 0)
(10.0752 0.0586502 0)
(10.0862 0.0579034 0)
(10.0962 0.0559876 0)
(10.1052 0.0533263 0)
(10.1133 0.0503326 0)
(10.1208 0.0469716 0)
(10.1279 0.0430457 0)
(10.1341 0.0386004 0)
(10.1395 0.0339268 0)
(10.144 0.0292443 0)
(10.1479 0.0246683 0)
(10.1506 0.0200066 0)
(10.0011 0.0105817 0)
(10.01 0.0313063 0)
(10.024 0.041527 0)
(10.0367 0.0470062 0)
(10.0475 0.0505247 0)
(10.058 0.0529913 0)
(10.0686 0.0538683 0)
(10.0788 0.0532971 0)
(10.0883 0.0515713 0)
(10.0969 0.0491257 0)
(10.1048 0.0462668 0)
(10.1121 0.0430506 0)
(10.1188 0.0393254 0)
(10.1248 0.0352088 0)
(10.1301 0.0309125 0)
(10.1346 0.0265976 0)
(10.1384 0.0223828 0)
(10.1413 0.0181619 0)
(10.0004 0.00929322 0)
(10.0081 0.0235571 0)
(10.0201 0.0354169 0)
(10.0319 0.0416841 0)
(10.0424 0.0456464 0)
(10.0526 0.0480945 0)
(10.0627 0.0490401 0)
(10.0725 0.0486015 0)
(10.0816 0.0470755 0)
(10.0899 0.0448199 0)
(10.0975 0.0421194 0)
(10.1046 0.0390437 0)
(10.1111 0.0355531 0)
(10.117 0.0317606 0)
(10.1221 0.0277987 0)
(10.1266 0.0238055 0)
(10.1305 0.0198931 0)
(10.1335 0.0160451 0)
(10.0006 0.00772274 0)
(10.0067 0.0209214 0)
(10.0165 0.031041 0)
(10.0273 0.0369699 0)
(10.0375 0.0407743 0)
(10.0473 0.0431341 0)
(10.057 0.0440716 0)
(10.0664 0.0437469 0)
(10.0752 0.0424051 0)
(10.0833 0.040349 0)
(10.0908 0.0378258 0)
(10.0977 0.0349093 0)
(10.1041 0.0316556 0)
(10.1098 0.0281405 0)
(10.1149 0.0244818 0)
(10.1193 0.0207971 0)
(10.1232 0.0171822 0)
(10.1264 0.0136752 0)
(10.0006 0.00652348 0)
(10.0055 0.0180087 0)
(10.0139 0.0272397 0)
(10.0237 0.0328369 0)
(10.0333 0.0364139 0)
(10.0427 0.0385961 0)
(10.052 0.039468 0)
(10.061 0.0391869 0)
(10.0695 0.0379688 0)
(10.0774 0.0360677 0)
(10.0847 0.0336949 0)
(10.0914 0.0309484 0)
(10.0976 0.0278967 0)
(10.1033 0.0246252 0)
(10.1083 0.0212273 0)
(10.1128 0.0178073 0)
(10.1168 0.0144397 0)
(10.1202 0.0112005 0)
(10.0005 0.00541818 0)
(10.0045 0.0152106 0)
(10.0118 0.0234992 0)
(10.0205 0.0287013 0)
(10.0295 0.0320209 0)
(10.0383 0.0340191 0)
(10.0471 0.034814 0)
(10.0557 0.0345573 0)
(10.0639 0.0334396 0)
(10.0716 0.0316753 0)
(10.0786 0.0294533 0)
(10.0852 0.0268739 0)
(10.0913 0.0240181 0)
(10.0968 0.0209702 0)
(10.1018 0.0178156 0)
(10.1063 0.0146408 0)
(10.1103 0.0115085 0)
(10.1138 0.00850549 0)
(10.0004 0.00435677 0)
(10.0037 0.0124036 0)
(10.0098 0.0195414 0)
(10.0175 0.0241653 0)
(10.0257 0.0270979 0)
(10.0339 0.0288231 0)
(10.0421 0.0294778 0)
(10.0502 0.0292024 0)
(10.0579 0.0281613 0)
(10.0652 0.0265341 0)
(10.072 0.0244752 0)
(10.0784 0.0220817 0)
(10.0842 0.019439 0)
(10.0896 0.0166215 0)
(10.0945 0.01371 0)
(10.0989 0.0107752 0)
(10.103 0.00785981 0)
(10.1065 0.00507715 0)
(10.0003 0.00331777 0)
(10.003 0.00956596 0)
(10.0081 0.0153738 0)
(10.0148 0.0192273 0)
(10.0221 0.0216397 0)
(10.0296 0.0230052 0)
(10.0372 0.0234554 0)
(10.0447 0.023114 0)
(10.0519 0.0221135 0)
(10.0587 0.0205996 0)
(10.0652 0.0186933 0)
(10.0712 0.0164905 0)
(10.0768 0.0140602 0)
(10.0819 0.0114755 0)
(10.0867 0.00879643 0)
(10.091 0.0060882 0)
(10.0951 0.00337181 0)
(10.0987 0.000784682 0)
(10.0003 0.00229308 0)
(10.0024 0.00671462 0)
(10.0067 0.0110283 0)
(10.0125 0.0139092 0)
(10.019 0.0156562 0)
(10.0258 0.0165639 0)
(10.0326 0.0167365 0)
(10.0395 0.016272 0)
(10.0462 0.0152712 0)
(10.0525 0.0138392 0)
(10.0586 0.0120732 0)
(10.0642 0.0100476 0)
(10.0695 0.00782487 0)
(10.0744 0.00546017 0)
(10.079 0.00300323 0)
(10.0832 0.00050111 0)
(10.0871 -0.00203408 0)
(10.0907 -0.00445746 0)
(10.0002 0.00127056 0)
(10.002 0.00383237 0)
(10.0056 0.00650825 0)
(10.0106 0.0082231 0)
(10.0164 0.00914865 0)
(10.0225 0.00948325 0)
(10.0288 0.00928944 0)
(10.035 0.00863128 0)
(10.0411 0.00757588 0)
(10.047 0.00619041 0)
(10.0526 0.00453997 0)
(10.0579 0.00267722 0)
(10.0629 0.000650352 0)
(10.0675 -0.00150408 0)
(10.0718 -0.00374939 0)
(10.0759 -0.00605526 0)
(10.0796 -0.0084175 0)
(10.0831 -0.0106875 0)
(10.0002 0.000218549 0)
(10.0018 0.00082727 0)
(10.0049 0.00171859 0)
(10.0094 0.00208611 0)
(10.0146 0.00202955 0)
(10.0202 0.00166482 0)
(10.0259 0.00100469 0)
(10.0317 7.48369e-05 0)
(10.0373 -0.00109621 0)
(10.0428 -0.00247785 0)
(10.048 -0.00404023 0)
(10.0529 -0.00575371 0)
(10.0575 -0.00759405 0)
(10.0619 -0.00953799 0)
(10.0659 -0.0115687 0)
(10.0697 -0.0136663 0)
(10.0732 -0.0158378 0)
(10.0765 -0.0179353 0)
(10.0002 -0.000939372 0)
(10.0017 -0.00252453 0)
(10.0047 -0.00360801 0)
(10.009 -0.00475401 0)
(10.014 -0.00592202 0)
(10.0193 -0.00708074 0)
(10.0247 -0.0082744 0)
(10.0302 -0.00951997 0)
(10.0355 -0.0108348 0)
(10.0406 -0.0122236 0)
(10.0455 -0.0136957 0)
(10.0502 -0.0152459 0)
(10.0545 -0.0168767 0)
(10.0585 -0.0185782 0)
(10.0623 -0.0203529 0)
(10.0658 -0.0221897 0)
(10.069 -0.0241043 0)
(10.072 -0.0259643 0)
(10.0002 -0.00207383 0)
(10.0019 -0.00584266 0)
(10.0053 -0.00879975 0)
(10.0099 -0.0113329 0)
(10.0152 -0.0134824 0)
(10.0206 -0.0153222 0)
(10.0261 -0.0169471 0)
(10.0316 -0.0184247 0)
(10.0369 -0.0198065 0)
(10.042 -0.0211466 0)
(10.0468 -0.0224759 0)
(10.0512 -0.0238261 0)
(10.0554 -0.0252061 0)
(10.0592 -0.0266353 0)
(10.0628 -0.0281116 0)
(10.066 -0.0296502 0)
(10.069 -0.0312511 0)
(10.0718 -0.0328226 0)
(10.0002 -0.00314091 0)
(10.0024 -0.00895079 0)
(10.0064 -0.0134809 0)
(10.0117 -0.0170734 0)
(10.0174 -0.0199185 0)
(10.0233 -0.0222088 0)
(10.0291 -0.0240833 0)
(10.0348 -0.0256449 0)
(10.0403 -0.0269888 0)
(10.0454 -0.0282031 0)
(10.0502 -0.0293465 0)
(10.0546 -0.0304679 0)
(10.0587 -0.031591 0)
(10.0624 -0.0327446 0)
(10.0658 -0.0339358 0)
(10.069 -0.0351827 0)
(10.0717 -0.0364886 0)
(10.0744 -0.0377713 0)
(10.0003 -0.00432935 0)
(10.0031 -0.0123125 0)
(10.0081 -0.0182875 0)
(10.0144 -0.0227191 0)
(10.0209 -0.0260751 0)
(10.0273 -0.0286702 0)
(10.0336 -0.0306722 0)
(10.0396 -0.0322133 0)
(10.0453 -0.0334412 0)
(10.0506 -0.0344697 0)
(10.0555 -0.0353887 0)
(10.06 -0.0362468 0)
(10.0641 -0.0370966 0)
(10.0677 -0.0379551 0)
(10.0711 -0.0388597 0)
(10.0741 -0.0398055 0)
(10.0767 -0.0408243 0)
(10.0792 -0.0418211 0)
(10.0005 -0.00575361 0)
(10.0043 -0.0161127 0)
(10.0108 -0.0233484 0)
(10.0182 -0.0283722 0)
(10.0256 -0.0320707 0)
(10.0327 -0.0348438 0)
(10.0395 -0.0368463 0)
(10.046 -0.0382661 0)
(10.0521 -0.0393012 0)
(10.0576 -0.0400992 0)
(10.0626 -0.040754 0)
(10.0672 -0.0413318 0)
(10.0713 -0.0418813 0)
(10.0749 -0.0424437 0)
(10.0782 -0.0430424 0)
(10.0811 -0.0436956 0)
(10.0837 -0.0444138 0)
(10.086 -0.0451346 0)
(10.0007 -0.00755968 0)
(10.0061 -0.020508 0)
(10.0145 -0.0286936 0)
(10.0234 -0.0340237 0)
(10.0316 -0.0379354 0)
(10.0395 -0.0407973 0)
(10.047 -0.0427124 0)
(10.0541 -0.0439331 0)
(10.0605 -0.0447156 0)
(10.0663 -0.0452336 0)
(10.0715 -0.0455831 0)
(10.0762 -0.0458418 0)
(10.0804 -0.0460618 0)
(10.084 -0.0463056 0)
(10.0872 -0.0465957 0)
(10.09 -0.046963 0)
(10.0925 -0.0474055 0)
(10.0947 -0.0478786 0)
(10.0011 -0.00990461 0)
(10.009 -0.0256163 0)
(10.0198 -0.0343749 0)
(10.0302 -0.0397181 0)
(10.0394 -0.0436791 0)
(10.0482 -0.0465015 0)
(10.0566 -0.0482502 0)
(10.0643 -0.049235 0)
(10.0712 -0.0497442 0)
(10.0774 -0.0499547 0)
(10.0829 -0.0499686 0)
(10.0878 -0.0498695 0)
(10.092 -0.0497307 0)
(10.0957 -0.0496122 0)
(10.0989 -0.0495553 0)
(10.1016 -0.0495816 0)
(10.104 -0.0497121 0)
(10.1061 -0.0498682 0)
(10.0016 -0.0130577 0)
(10.0133 -0.0313734 0)
(10.0273 -0.0404149 0)
(10.0395 -0.0457362 0)
(10.0501 -0.0496435 0)
(10.0602 -0.0521798 0)
(10.0698 -0.053535 0)
(10.0786 -0.0541415 0)
(10.0864 -0.0543017 0)
(10.0933 -0.0541835 0)
(10.0993 -0.0538916 0)
(10.1046 -0.0535161 0)
(10.1092 -0.0531201 0)
(10.1131 -0.0527734 0)
(10.1164 -0.0525189 0)
(10.1193 -0.0523655 0)
(10.1217 -0.0523427 0)
(10.1239 -0.0523119 0)
(10.0031 -0.0181477 0)
(10.0205 -0.0377881 0)
(10.0395 -0.0459858 0)
(10.0552 -0.0515265 0)
(10.0687 -0.0557647 0)
(10.0817 -0.0581435 0)
(10.0939 -0.0590272 0)
(10.1048 -0.0590836 0)
(10.1144 -0.0586593 0)
(10.1228 -0.0579381 0)
(10.1301 -0.0570498 0)
(10.1364 -0.0561152 0)
(10.1418 -0.0552203 0)
(10.1464 -0.0544332 0)
(10.1504 -0.0537895 0)
(10.1539 -0.0533185 0)
(10.1569 -0.0530421 0)
(10.1596 -0.0527919 0)
(10.0092 -0.0270696 0)
(10.0411 -0.0479622 0)
(10.0725 -0.0527702 0)
(10.0981 -0.0573734 0)
(10.1209 -0.0620509 0)
(10.1419 -0.0650169 0)
(10.1603 -0.0663235 0)
(10.1757 -0.0665946 0)
(10.1882 -0.0662127 0)
(10.1982 -0.0653633 0)
(10.206 -0.0642411 0)
(10.2119 -0.0629993 0)
(10.2163 -0.0617814 0)
(10.2194 -0.0606819 0)
(10.2213 -0.0597746 0)
(10.2223 -0.0591515 0)
(10.2223 -0.0587932 0)
(10.2219 -0.0587552 0)
(10.0425 -0.0359604 0)
(10.1456 -0.0639662 0)
(10.2148 -0.068235 0)
(10.2555 -0.06942 0)
(10.2782 -0.0703411 0)
(10.287 -0.0700545 0)
(10.2831 -0.0686629 0)
(10.2687 -0.0666976 0)
(10.246 -0.0644537 0)
(10.2174 -0.0621077 0)
(10.1844 -0.0597322 0)
(10.1483 -0.0574269 0)
(10.11 -0.0552571 0)
(10.0703 -0.0533289 0)
(10.0297 -0.0516459 0)
(9.98913 -0.0501876 0)
(9.94909 -0.049089 0)
(9.91029 -0.0487704 0)
(9.8762 -0.0424822 0)
(9.62225 -0.0763213 0)
(9.35323 -0.0853176 0)
(9.08627 -0.0860653 0)
(8.83532 -0.0831366 0)
(8.60693 -0.0776695 0)
(8.40106 -0.0708983 0)
(8.21682 -0.0636438 0)
(8.05322 -0.0565254 0)
(7.90862 -0.049891 0)
(7.78103 -0.0438369 0)
(7.6684 -0.0383908 0)
(7.56886 -0.0335873 0)
(7.48035 -0.0293907 0)
(7.40159 -0.0258533 0)
(7.33049 -0.0229983 0)
(7.26496 -0.0207112 0)
(7.20543 -0.01939 0)
(0.0349313 0.0158347 -6.50836e-19)
(-0.0270842 0.0159402 4.64421e-19)
(-0.0501544 0.0329158 -2.42039e-19)
(-0.106488 0.0449708 -5.87328e-20)
(-0.159844 0.0536808 7.2923e-20)
(-0.214334 0.0575355 -1.46685e-20)
(-0.269183 0.0573352 -1.17531e-20)
(-0.32305 0.0547323 4.64572e-20)
(-0.375066 0.0513281 -2.38304e-20)
(-0.425125 0.0480749 7.45627e-21)
(-0.473987 0.0457124 2.91651e-21)
(-0.52249 0.0448442 -3.57875e-20)
(-0.571714 0.0461491 5.42492e-20)
(-0.622919 0.0495656 5.80151e-20)
(-0.677372 0.0547712 5.0731e-21)
(-0.735953 0.061711 2.11591e-20)
(-0.79931 0.0699544 8.0668e-21)
(-0.86779 0.0790268 1.33399e-20)
(-0.941252 0.0878382 1.88621e-20)
(-1.01928 0.0945846 1.9302e-21)
(-1.10059 0.097255 -6.15561e-21)
(-1.18342 0.0956988 4.83413e-20)
(-1.26579 0.0918897 -5.83978e-21)
(-1.34676 0.0899015 4.44188e-20)
(-1.42532 0.0885332 -8.66472e-21)
(-1.50066 0.0854534 3.10916e-20)
(-1.5714 0.081528 1.48254e-20)
(-1.63668 0.076778 9.14552e-21)
(-1.6958 0.0716358 -3.45739e-20)
(-1.74833 0.0662355 -5.96667e-21)
(-1.79404 0.0607526 -3.91419e-20)
(-1.83264 0.0551382 2.34937e-20)
(-1.86371 0.0490608 1.72109e-20)
(-1.88712 0.0426023 -2.16249e-20)
(-1.90279 0.0357739 -3.32083e-20)
(-1.9107 0.0287969 -2.21757e-21)
(-1.91205 0.0213487 1.24785e-20)
(-1.90642 0.0128864 3.04304e-20)
(-1.89313 0.00295678 2.09483e-20)
(-1.87158 -0.00828992 4.7359e-20)
(-1.84145 -0.0210549 1.81248e-20)
(-1.80187 -0.0358482 4.55526e-21)
(-1.75104 -0.0522788 -5.72356e-20)
(-1.68874 -0.0698256 -1.08908e-20)
(-1.61523 -0.0901968 2.02632e-20)
(-1.52618 -0.112436 9.13444e-22)
(-1.42052 -0.132768 3.58211e-20)
(-1.30748 -0.154753 9.21993e-21)
(-1.17917 -0.183321 2.74912e-21)
(-1.02097 -0.208177 -1.42431e-20)
(-0.86589 -0.224559 5.05148e-21)
(-0.723678 -0.251507 -1.98472e-22)
(-0.506447 -0.283415 -1.47377e-20)
(-0.245457 -0.292889 -1.84252e-20)
(0.000801683 -0.287102 -8.83742e-21)
(0.246605 -0.276001 -2.3291e-20)
(0.486644 -0.262752 -3.4016e-20)
(0.717129 -0.248811 3.90686e-20)
(0.934555 -0.234241 -1.61131e-20)
(1.13538 -0.219612 -1.87122e-20)
(1.31703 -0.19943 4.56561e-20)
(1.47253 -0.166883 3.04767e-20)
(1.59413 -0.121049 -2.43913e-20)
(1.66061 -0.0691883 -2.93588e-20)
(1.67321 -0.0185194 -8.45825e-21)
(1.63073 0.0262101 3.39965e-20)
(1.53811 0.0615636 -4.02247e-21)
(1.40474 0.0855139 -2.06315e-21)
(1.24593 0.0971054 -1.12534e-20)
(1.07205 0.105579 -6.33924e-20)
(0.897074 0.106219 3.57473e-21)
(0.742705 0.0842914 6.03373e-20)
(0.606037 0.0584965 -7.5755e-20)
(0.471206 0.051704 -3.07448e-20)
(0.335301 0.0562413 3.83445e-20)
(0.193175 0.0510719 1.04936e-20)
(0.0756286 0.0327249 -2.7195e-21)
(0.0849 0.0235837 -5.27589e-20)
(0.114222 -0.0083544 -3.41267e-20)
(0.168637 -0.0505583 5.22273e-20)
(0.261977 -0.0289881 1.5543e-20)
(0.276665 -0.00185506 -3.46822e-21)
(0.260852 -0.0308387 -8.33749e-20)
(0.14572 -0.104527 -1.3605e-19)
(0.439689 -0.0317188 -1.36579e-19)
(-0.0219706 0.183299 1.08422e-19)
(-0.595702 0.366741 -1.75103e-19)
(-1.23807 0.440528 5.40325e-21)
(-1.8898 0.44287 -7.48231e-20)
(-2.51436 0.410577 7.81795e-20)
(-3.08739 0.36473 2.8836e-20)
(-3.59806 0.316102 -1.44808e-20)
(-4.04612 0.270376 -8.34199e-21)
(-4.43325 0.229426 -4.80883e-22)
(-4.7676 0.194232 -1.28864e-20)
(-5.05385 0.163642 -2.19525e-20)
(-5.29941 0.137405 3.12961e-20)
(-5.50857 0.114618 -2.13783e-20)
(-5.68606 0.0948072 -6.12733e-20)
(-5.83482 0.0771815 -3.10058e-20)
(-5.9572 0.0613813 8.67656e-20)
(-6.05518 0.0470336 4.85522e-20)
(-6.13026 0.0340832 7.97573e-20)
(-6.18418 0.0224434 -5.29496e-20)
(-6.21857 0.0122816 1.81104e-20)
(-6.23535 0.00367203 6.69911e-21)
(-6.23879 -0.00339206 -1.29472e-20)
(-6.22971 -0.00978846 -2.94096e-20)
(-6.20872 -0.0158762 -4.60396e-20)
(-6.17647 -0.0216975 -7.76175e-20)
(-6.13347 -0.0273076 -1.09625e-19)
(-6.08014 -0.0328216 5.95758e-20)
(-6.01697 -0.0380736 -8.47165e-20)
(-5.94464 -0.0430512 -8.40094e-20)
(-5.86363 -0.0475984 1.49168e-19)
(-5.77458 -0.0515752 -8.82828e-21)
(-5.67848 -0.0548033 -9.57615e-20)
(-5.57563 -0.0578379 -9.92724e-20)
(-5.46682 -0.0606011 9.06565e-20)
(-5.35275 -0.0632147 6.67557e-21)
(-5.23356 -0.0654008 2.62274e-20)
(-5.11099 -0.0670432 -1.67305e-20)
(-4.98407 -0.0688638 -4.70516e-20)
(-4.85457 -0.0695291 3.79992e-20)
(-4.72336 -0.0695358 -3.17482e-20)
(-4.58972 -0.0696225 2.66228e-20)
(-4.45556 -0.0684764 3.28063e-20)
(-4.32185 -0.0665525 -1.03083e-20)
(-4.18773 -0.064719 2.39948e-20)
(-4.0561 -0.0616958 -1.63802e-20)
(-3.92598 -0.0584441 2.54968e-20)
(-3.79925 -0.0545081 -7.30647e-22)
(-3.67612 -0.0502125 1.34754e-20)
(-3.55714 -0.0456779 -9.88314e-21)
(-3.44271 -0.0411131 4.44411e-21)
(-3.33294 -0.0367293 -3.65929e-20)
(-3.2278 -0.0327036 -6.81001e-20)
(-3.12709 -0.0291581 7.90471e-20)
(-3.03045 -0.0261736 3.88595e-20)
(-2.93736 -0.0237937 -9.91707e-21)
(-2.84752 -0.0219893 1.89215e-19)
(-2.76019 -0.0208898 1.65286e-19)
(-2.67461 -0.0204849 -8.54253e-20)
(-2.58975 -0.0205799 -8.76361e-20)
(-2.50496 -0.0209291 -1.48849e-19)
(-2.41906 -0.0216347 -2.05933e-19)
(-2.33099 -0.0225218 -1.47524e-19)
(-2.23975 -0.0234081 -2.28591e-19)
(-2.14384 -0.0243745 1.0866e-19)
(-2.04286 -0.024685 9.84625e-20)
(-1.93564 -0.0250949 1.66468e-19)
(-1.82244 -0.0251434 1.23039e-19)
(-1.70218 -0.0259743 3.52154e-19)
(-1.57489 -0.0278775 2.43627e-20)
(-1.44069 -0.0306964 1.61915e-20)
(-1.2996 -0.0343905 -2.96081e-19)
(-1.15243 -0.0384307 4.97894e-19)
(-0.999889 -0.043387 -3.18648e-19)
(-0.842151 -0.0496125 4.84043e-20)
(-0.680038 -0.0571243 1.94135e-19)
(-0.514465 -0.0664066 7.99862e-20)
(-0.346606 -0.078258 2.36396e-19)
(-0.169228 -0.0890156 1.16636e-18)
(0.0292637 -0.090593 4.78391e-19)
(0.239085 -0.086366 1.78705e-19)
(0.448806 -0.0815237 2.07856e-19)
(0.655378 -0.0762076 4.95132e-19)
(0.857832 -0.0708586 -1.85718e-20)
(1.05359 -0.0670078 4.25718e-19)
(1.24084 -0.0647639 5.4293e-19)
(1.4205 -0.0623321 4.70919e-19)
(1.59087 -0.0584222 -1.5397e-20)
(1.75174 -0.0540464 3.5946e-20)
(1.90114 -0.049165 -7.71358e-20)
(2.03939 -0.0440882 -8.79576e-19)
(2.16336 -0.0385694 3.98239e-19)
(2.27483 -0.0312885 2.69088e-19)
(2.35838 -0.0232333 -5.06461e-19)
(2.43896 -0.00639289 -4.79666e-19)
(2.3847 0.0232799 7.14768e-19)
(0.0218248 0.0832692 1.19074e-18)
(-0.0904368 0.116521 -3.51725e-19)
(-0.140822 0.156766 -1.05896e-19)
(-0.207008 0.173032 2.0864e-19)
(-0.260112 0.177915 3.89945e-20)
(-0.309579 0.176256 2.18308e-20)
(-0.357195 0.171215 -1.94217e-20)
(-0.404646 0.165159 -9.07623e-20)
(-0.452842 0.159647 -6.08026e-21)
(-0.502458 0.155488 -8.60019e-20)
(-0.554136 0.15312 4.91649e-21)
(-0.60802 0.152797 -1.28042e-21)
(-0.664144 0.154815 3.02215e-20)
(-0.7223 0.159223 4.20093e-21)
(-0.782161 0.165604 -9.24246e-21)
(-0.84336 0.1733 -7.44762e-20)
(-0.905546 0.181542 -1.52926e-20)
(-0.968091 0.189355 6.30762e-20)
(-1.03021 0.1958 -6.95826e-20)
(-1.09106 0.200082 1.85765e-20)
(-1.15006 0.201677 1.60278e-21)
(-1.20687 0.200218 3.32891e-20)
(-1.26132 0.195579 3.69547e-20)
(-1.31269 0.187907 3.00825e-20)
(-1.36032 0.177782 3.75478e-20)
(-1.40425 0.165773 -2.06172e-20)
(-1.44465 0.152242 4.93099e-21)
(-1.48159 0.137893 6.05451e-21)
(-1.51539 0.122979 -2.26254e-20)
(-1.54611 0.107815 -1.56542e-20)
(-1.57388 0.092547 -2.48891e-20)
(-1.59862 0.0773636 -8.16644e-21)
(-1.62034 0.0623643 -5.97959e-20)
(-1.63869 0.0474584 2.524e-20)
(-1.65299 0.0323738 -3.58556e-20)
(-1.66268 0.0170973 4.38579e-20)
(-1.66537 0.00106422 -4.23144e-20)
(-1.66002 -0.0161415 1.13612e-20)
(-1.64545 -0.0349683 2.93071e-20)
(-1.62056 -0.0556262 -2.28909e-20)
(-1.58434 -0.0783026 1.84248e-20)
(-1.53589 -0.10319 -7.20604e-21)
(-1.47426 -0.130475 -2.70982e-20)
(-1.39855 -0.159884 -7.19599e-20)
(-1.30821 -0.191583 -4.54797e-20)
(-1.20322 -0.225497 5.13874e-22)
(-1.08272 -0.260315 -3.94715e-20)
(-0.945985 -0.295443 -8.06305e-21)
(-0.795356 -0.332161 2.21791e-20)
(-0.631715 -0.369084 1.47952e-20)
(-0.448245 -0.405779 2.8579e-21)
(-0.253508 -0.441724 1.43459e-21)
(-0.0660382 -0.470254 4.8955e-21)
(0.114125 -0.484534 1.37082e-20)
(0.293883 -0.484743 1.25236e-20)
(0.477196 -0.474558 3.88009e-20)
(0.662096 -0.456013 5.21036e-20)
(0.844342 -0.430107 1.0603e-20)
(1.01945 -0.397484 -8.27124e-21)
(1.18359 -0.358553 4.92782e-20)
(1.33355 -0.312846 -4.10892e-20)
(1.46934 -0.258371 1.73593e-20)
(1.5948 -0.192634 7.89948e-20)
(1.71683 -0.115136 -5.46158e-21)
(1.82454 -0.0296808 -6.02532e-20)
(1.90777 0.0596318 2.3021e-20)
(1.95234 0.144857 -2.62846e-21)
(1.94573 0.217406 6.09602e-20)
(1.88044 0.269641 -2.18918e-20)
(1.76409 0.298003 4.39981e-20)
(1.60988 0.301248 -9.61303e-22)
(1.43549 0.287171 6.85157e-20)
(1.24068 0.268464 -8.22934e-22)
(1.04755 0.244285 6.04617e-20)
(0.891469 0.209515 -9.55466e-20)
(0.770709 0.161581 1.88892e-19)
(0.66751 0.0875425 -2.37152e-20)
(0.656238 0.000433629 1.45644e-19)
(0.750158 -0.0674458 -6.93777e-21)
(0.824401 -0.0791014 -1.11254e-19)
(0.800262 -0.156657 -2.56804e-20)
(0.655536 -0.288236 1.1503e-19)
(0.514441 0.160194 1.4491e-19)
(-0.262697 0.648247 -7.40552e-20)
(-1.17201 0.887069 -1.47985e-19)
(-2.13548 0.987032 4.38593e-20)
(-2.90126 1.01767 -1.8825e-22)
(-3.4912 0.983303 2.69475e-21)
(-3.95358 0.905932 -5.43868e-20)
(-4.31859 0.80665 -1.69076e-19)
(-4.60989 0.702878 -2.95897e-20)
(-4.84654 0.604498 -3.20854e-20)
(-5.04226 0.516601 3.86667e-20)
(-5.20779 0.439953 -2.82575e-22)
(-5.34896 0.374382 9.96518e-21)
(-5.47081 0.31811 4.41815e-20)
(-5.57578 0.269656 -3.59364e-20)
(-5.66602 0.227307 -1.99931e-20)
(-5.7428 0.189962 -4.25643e-20)
(-5.80743 0.156492 7.23396e-20)
(-5.86122 0.126238 -1.15973e-19)
(-5.90523 0.0986671 -9.87762e-20)
(-5.94037 0.0735302 -7.07491e-20)
(-5.96705 0.0504896 2.56667e-19)
(-5.98534 0.0294081 -3.12566e-20)
(-5.99421 0.0107371 2.09548e-20)
(-5.99153 -0.00602346 1.15237e-19)
(-5.97691 -0.021748 2.61221e-19)
(-5.95084 -0.036185 -3.75714e-20)
(-5.91394 -0.0497038 -1.09808e-19)
(-5.86657 -0.0622088 8.44619e-21)
(-5.80931 -0.0735846 -2.16459e-19)
(-5.74299 -0.084044 2.39678e-19)
(-5.66799 -0.0938959 9.08133e-20)
(-5.58496 -0.102855 7.31851e-20)
(-5.49454 -0.111387 1.79325e-19)
(-5.39733 -0.118893 2.14675e-19)
(-5.29357 -0.125317 -1.12691e-19)
(-5.1842 -0.130958 7.26601e-20)
(-5.0698 -0.135834 1.02602e-19)
(-4.95111 -0.140101 1.21688e-19)
(-4.82879 -0.143175 -1.3782e-20)
(-4.70259 -0.145843 -5.547e-21)
(-4.57456 -0.148304 -8.80021e-20)
(-4.44435 -0.149207 -7.79749e-20)
(-4.31172 -0.149705 -7.65018e-20)
(-4.17907 -0.149976 6.92205e-20)
(-4.04615 -0.148578 -8.85476e-21)
(-3.91273 -0.146669 -2.96667e-20)
(-3.78141 -0.143831 -5.60638e-21)
(-3.65107 -0.140033 -1.64259e-20)
(-3.5237 -0.135713 -9.14051e-21)
(-3.39944 -0.130672 1.76277e-21)
(-3.27903 -0.12513 -6.92692e-21)
(-3.16301 -0.119235 -1.12546e-20)
(-3.05161 -0.113163 -1.6801e-20)
(-2.94494 -0.107231 3.10713e-20)
(-2.843 -0.101608 -2.06333e-19)
(-2.74551 -0.0964168 3.36367e-21)
(-2.65204 -0.0917778 1.67486e-19)
(-2.56211 -0.0877421 -1.00064e-19)
(-2.47479 -0.0844964 1.35453e-19)
(-2.38921 -0.0822848 5.47967e-20)
(-2.30468 -0.0810593 -1.08878e-19)
(-2.21995 -0.0808422 -3.48605e-20)
(-2.13319 -0.0816652 -1.59083e-19)
(-2.04403 -0.0837504 -9.35228e-20)
(-1.95032 -0.0870241 1.87546e-19)
(-1.85161 -0.0913378 2.93854e-19)
(-1.7458 -0.0964799 -3.90145e-19)
(-1.6328 -0.102146 1.17483e-19)
(-1.51143 -0.108361 2.3485e-20)
(-1.38122 -0.114528 -6.3792e-19)
(-1.24245 -0.120687 1.60695e-20)
(-1.09498 -0.126555 1.03739e-20)
(-0.939309 -0.13196 -2.24725e-19)
(-0.775656 -0.136985 2.98066e-19)
(-0.604341 -0.141858 4.40237e-19)
(-0.42558 -0.14696 4.89916e-19)
(-0.239783 -0.152159 4.62432e-19)
(-0.0407042 -0.157028 -6.66934e-19)
(0.172424 -0.162726 7.7347e-20)
(0.388424 -0.169459 -1.5175e-19)
(0.60069 -0.173161 3.83513e-19)
(0.810199 -0.17286 -1.09547e-19)
(1.01857 -0.169716 4.21378e-19)
(1.22482 -0.164719 -3.99353e-19)
(1.4279 -0.158438 -5.91343e-19)
(1.62581 -0.151272 -8.65146e-19)
(1.81766 -0.143383 -3.93825e-19)
(2.00261 -0.135255 -1.72303e-19)
(2.17897 -0.12683 8.06212e-20)
(2.34593 -0.117918 4.81237e-20)
(2.50258 -0.108432 -5.5114e-19)
(2.64846 -0.0983552 -5.07104e-19)
(2.78154 -0.0873534 6.96511e-19)
(2.90207 -0.0746634 8.47456e-19)
(3.00251 -0.0582963 7.98025e-19)
(3.08962 -0.0314438 4.04293e-19)
(3.13226 0.019217 -8.73398e-19)
(0.000366901 0.178933 1.14597e-19)
(-0.0759322 0.257742 3.68781e-19)
(-0.12687 0.271693 2.4859e-19)
(-0.166228 0.269919 -1.68891e-19)
(-0.198128 0.262377 4.03586e-20)
(-0.226566 0.254032 -2.35633e-20)
(-0.253931 0.247028 -1.17049e-20)
(-0.282053 0.242556 9.92993e-20)
(-0.312157 0.240982 8.4617e-20)
(-0.345018 0.242291 7.46674e-20)
(-0.381417 0.246176 3.5371e-20)
(-0.421713 0.252158 3.49274e-20)
(-0.46591 0.259741 -1.14409e-19)
(-0.513592 0.268338 -7.17902e-20)
(-0.564013 0.277302 2.55505e-20)
(-0.616227 0.286004 -5.35829e-20)
(-0.669334 0.293761 5.03702e-20)
(-0.722542 0.299774 6.92952e-21)
(-0.775277 0.303258 6.62824e-20)
(-0.827211 0.303587 5.45659e-20)
(-0.878297 0.300415 -4.84738e-20)
(-0.928573 0.293638 -1.21532e-19)
(-0.978165 0.283551 -2.03304e-20)
(-1.02711 0.270549 -1.20845e-19)
(-1.07522 0.255354 2.49572e-20)
(-1.12257 0.238387 3.65701e-20)
(-1.16895 0.22021 -1.3858e-20)
(-1.21439 0.201286 4.48077e-20)
(-1.2584 0.181666 2.33421e-20)
(-1.30068 0.161604 4.90922e-20)
(-1.34078 0.141079 -2.32433e-20)
(-1.37806 0.119961 -1.48716e-20)
(-1.41182 0.0979795 7.9217e-21)
(-1.44115 0.0747618 -9.24556e-21)
(-1.46508 0.0498601 -1.31507e-20)
(-1.48279 0.0230137 -1.35219e-21)
(-1.49313 -0.00621354 -5.11713e-20)
(-1.49525 -0.03801 1.85228e-20)
(-1.48816 -0.0725521 -4.6634e-20)
(-1.47095 -0.109929 -1.52319e-20)
(-1.44276 -0.150164 1.27059e-20)
(-1.4028 -0.193205 -1.15959e-20)
(-1.35043 -0.238956 -2.31664e-20)
(-1.28512 -0.287117 5.28427e-20)
(-1.20646 -0.337223 5.48532e-20)
(-1.11435 -0.388596 -3.3699e-20)
(-1.00873 -0.440418 1.07986e-20)
(-0.889419 -0.491545 -1.29965e-20)
(-0.757233 -0.539989 -1.1747e-20)
(-0.614477 -0.583323 -3.96801e-22)
(-0.460159 -0.622713 6.62871e-22)
(-0.295698 -0.657009 -1.38915e-21)
(-0.127101 -0.684214 5.02554e-23)
(0.0438586 -0.701214 -9.33426e-21)
(0.217125 -0.706273 -2.32919e-21)
(0.392376 -0.699479 -4.46844e-21)
(0.568111 -0.681122 -1.32915e-20)
(0.742185 -0.651519 -2.15464e-20)
(0.911648 -0.610616 4.57279e-21)
(1.07321 -0.55885 -7.98671e-20)
(1.22329 -0.497553 -6.0736e-20)
(1.35937 -0.427702 -1.56711e-20)
(1.48115 -0.349324 -3.67798e-20)
(1.59031 -0.259742 9.20597e-20)
(1.68867 -0.157378 -1.46881e-20)
(1.77797 -0.0418527 -6.17977e-20)
(1.8557 0.0835624 1.04617e-19)
(1.91489 0.211142 4.83691e-20)
(1.94145 0.325699 -3.38586e-20)
(1.92518 0.411215 -2.92235e-20)
(1.86165 0.46031 6.69359e-20)
(1.75442 0.475767 -1.35076e-19)
(1.62002 0.459436 -1.45028e-20)
(1.48608 0.411808 -6.24892e-20)
(1.36151 0.343893 2.32461e-19)
(1.23915 0.258936 -2.56283e-19)
(1.17986 0.137744 -5.41312e-20)
(1.24431 -0.017807 1.06699e-19)
(1.28929 -0.170867 2.15979e-19)
(1.28021 -0.302743 1.28674e-19)
(0.945073 0.0382751 -2.6998e-20)
(0.0441163 0.873164 -3.70482e-20)
(-0.951073 1.36429 2.76189e-20)
(-1.90658 1.53596 1.18623e-19)
(-2.60961 1.57846 2.05316e-20)
(-3.15217 1.55458 3.74926e-20)
(-3.53257 1.47274 -1.73837e-20)
(-3.8049 1.34476 6.22783e-20)
(-4.01452 1.19514 8.68394e-20)
(-4.19141 1.04319 8.99448e-20)
(-4.35226 0.900811 -1.76935e-20)
(-4.50453 0.774044 5.07728e-20)
(-4.65035 0.663493 -2.51319e-20)
(-4.78823 0.568839 -3.15418e-21)
(-4.91866 0.487479 -6.63483e-21)
(-5.03829 0.417161 -2.22148e-20)
(-5.14802 0.355882 1.14477e-20)
(-5.24579 0.301614 7.40503e-20)
(-5.33224 0.253127 7.46332e-20)
(-5.4069 0.209182 4.01441e-20)
(-5.46991 0.168978 5.48275e-20)
(-5.52117 0.131844 3.08411e-20)
(-5.56071 0.0973598 3.20862e-20)
(-5.58852 0.0651735 -4.88395e-19)
(-5.60484 0.0350526 1.04227e-19)
(-5.60912 0.00691434 1.01435e-19)
(-5.60208 -0.0195336 -2.08706e-19)
(-5.58311 -0.0444181 1.89322e-19)
(-5.55334 -0.0677774 -6.61137e-20)
(-5.51309 -0.0896269 2.95837e-19)
(-5.46296 -0.109983 2.23597e-19)
(-5.40367 -0.128909 1.61652e-19)
(-5.33594 -0.146274 -1.08673e-19)
(-5.26011 -0.162178 1.35326e-19)
(-5.17689 -0.176501 8.96054e-20)
(-5.08668 -0.189289 -1.05533e-19)
(-4.9896 -0.200846 -1.59748e-19)
(-4.88642 -0.211052 5.00321e-19)
(-4.77796 -0.219822 7.55819e-20)
(-4.66478 -0.227225 -1.67936e-19)
(-4.54774 -0.233341 -4.16358e-19)
(-4.42707 -0.238293 -5.21309e-20)
(-4.30408 -0.241831 -3.85916e-21)
(-4.17861 -0.244305 -1.34806e-19)
(-4.051 -0.245664 1.18762e-20)
(-3.92253 -0.245678 9.39402e-20)
(-3.7931 -0.244643 -2.37967e-19)
(-3.6632 -0.242456 7.11311e-20)
(-3.53415 -0.238865 2.38451e-20)
(-3.40591 -0.234115 7.38088e-20)
(-3.2797 -0.227914 -1.37748e-20)
(-3.15566 -0.220647 1.12527e-20)
(-3.03443 -0.212449 -2.01844e-20)
(-2.91655 -0.203593 -6.63951e-21)
(-2.80256 -0.194308 5.86168e-20)
(-2.69292 -0.184759 -2.18766e-20)
(-2.588 -0.175269 -2.63242e-20)
(-2.48803 -0.166153 8.49618e-20)
(-2.39304 -0.157626 1.30224e-19)
(-2.30277 -0.149921 -6.25667e-21)
(-2.2164 -0.143328 6.60408e-20)
(-2.13303 -0.138029 -4.61093e-19)
(-2.05179 -0.134361 -5.55349e-20)
(-1.97152 -0.132527 -5.68766e-20)
(-1.89046 -0.132403 -9.49552e-20)
(-1.80678 -0.134276 3.78554e-19)
(-1.71977 -0.138191 -1.05415e-19)
(-1.62687 -0.143973 -2.02762e-19)
(-1.52787 -0.1513 -4.87354e-19)
(-1.42046 -0.15986 8.0159e-19)
(-1.30502 -0.168892 1.02358e-19)
(-1.17947 -0.178615 -8.53927e-20)
(-1.04432 -0.188247 3.1575e-19)
(-0.89925 -0.197655 -7.24177e-19)
(-0.744424 -0.206494 1.70725e-19)
(-0.580058 -0.214679 8.98509e-19)
(-0.406011 -0.222369 2.27456e-19)
(-0.22255 -0.229899 -1.37305e-19)