/*--------------------------------*- C++ -*----------------------------------*\
  =========                 |
  \\      /  F ield         | OpenFOAM: The Open Source CFD Toolbox
   \\    /   O peration     | Website:  https://openfoam.org
    \\  /    A nd           | Version:  13
     \\/     M anipulation  |
\*---------------------------------------------------------------------------*/
FoamFile
{
    format      ascii;
    class       volScalarField;
    location    "1300";
    object      k;
}
// * * * * * * * * * * * * * * * * * * * * * * * * * * * * * * * * * * * * * //

dimensions      [0 2 -2 0 0 0 0];

internalField   nonuniform List<scalar> 
12225
(
0.316126
2.30989
2.03317
1.65619
2.86
2.24141
1.8719
1.6557
1.32078
2.68256
3.11531
3.01246
2.40763
1.66255
1.70093
1.37383
1.30893
1.25339
0.311126
0.332948
0.307511
0.288584
0.280092
0.292761
0.274816
0.329508
0.334292
0.361015
0.447221
0.422178
0.466726
0.446521
0.466544
0.494623
0.550615
0.61954
0.364474
0.274447
0.15093
0.0644072
0.0905987
0.0774174
0.0457278
0.0440183
0.0310692
0.0347029
0.0413014
0.0396131
0.04551
0.0473922
0.0493118
0.0678012
0.082164
0.104428
0.378148
0.319292
0.205965
0.11795
0.0721172
0.042289
0.0317992
0.0295831
0.0256477
0.0227865
0.023335
0.0245578
0.0325088
0.0319632
0.0354311
0.0370376
0.0364604
0.0364386
0.367019
0.342938
0.274782
0.205506
0.169282
0.150619
0.127484
0.121752
0.114433
0.109757
0.10775
0.109035
0.115678
0.113213
0.106418
0.0976265
0.0891217
0.0844746
0.365277
0.350406
0.32148
0.294988
0.272805
0.255015
0.234772
0.227899
0.220536
0.215959
0.218192
0.226086
0.223442
0.216824
0.206165
0.19753
0.187385
0.17776
0.367749
0.357682
0.345598
0.334129
0.325519
0.31341
0.306904
0.301736
0.300677
0.303098
0.300621
0.29549
0.288262
0.280204
0.272052
0.264227
0.25864
0.250754
0.371289
0.364767
0.35781
0.353671
0.346312
0.342492
0.33824
0.334733
0.33491
0.333678
0.330398
0.325394
0.320425
0.314302
0.309347
0.303653
0.30028
0.295145
0.372768
0.368743
0.364082
0.361507
0.357777
0.35566
0.353168
0.351085
0.349454
0.34687
0.344107
0.340261
0.336721
0.332589
0.329326
0.325544
0.323135
0.319782
0.373194
0.37082
0.36756
0.36513
0.362637
0.360591
0.358758
0.356876
0.35514
0.352912
0.350662
0.347878
0.345337
0.342506
0.34018
0.337595
0.335707
0.333372
0.373784
0.371404
0.368953
0.366703
0.364595
0.362637
0.360898
0.359142
0.357487
0.355611
0.353762
0.351686
0.349753
0.347692
0.345907
0.344018
0.342486
0.340745
0.373835
0.371546
0.369325
0.367194
0.36521
0.36332
0.361592
0.359895
0.358297
0.356627
0.355005
0.3533
0.351689
0.350031
0.348539
0.347006
0.345682
0.344253
0.373832
0.371561
0.369405
0.367338
0.365396
0.363541
0.361812
0.360143
0.35857
0.357009
0.355514
0.354015
0.35259
0.351169
0.349852
0.348536
0.347343
0.346118
0.373829
0.371557
0.369409
0.367363
0.365431
0.363589
0.361854
0.360194
0.358624
0.357109
0.355668
0.354267
0.352936
0.35164
0.350419
0.349228
0.348112
0.347013
0.373827
0.371554
0.369402
0.367359
0.365424
0.363585
0.361842
0.360182
0.358608
0.357103
0.355673
0.354304
0.353002
0.351752
0.350565
0.349425
0.34834
0.347299
0.373826
0.371552
0.369396
0.367352
0.365413
0.363572
0.361824
0.360162
0.358581
0.357077
0.355645
0.354281
0.35298
0.351741
0.350557
0.34943
0.348351
0.347323
0.373825
0.37155
0.369393
0.367346
0.365405
0.363561
0.36181
0.360144
0.358561
0.357054
0.355619
0.354252
0.35295
0.351708
0.350524
0.349394
0.348316
0.347287
0.373825
0.371549
0.369391
0.367343
0.3654
0.363554
0.361801
0.360133
0.358548
0.357038
0.355601
0.354232
0.352927
0.351683
0.350497
0.349365
0.348285
0.347254
0.373825
0.371549
0.36939
0.367342
0.365399
0.363552
0.361798
0.36013
0.358543
0.357032
0.355594
0.354224
0.352918
0.351672
0.350485
0.349352
0.348271
0.347239
0.373825
0.37155
0.369392
0.367345
0.365402
0.363557
0.361804
0.360136
0.35855
0.35704
0.355602
0.354232
0.352927
0.351681
0.350495
0.349362
0.348281
0.347248
0.373825
0.371553
0.369395
0.367351
0.365409
0.363567
0.361814
0.36015
0.358564
0.357057
0.35562
0.354253
0.352948
0.351706
0.350519
0.349387
0.348302
0.347265
0.373825
0.371557
0.369399
0.367361
0.365419
0.363583
0.361831
0.360172
0.358589
0.357086
0.355651
0.354289
0.352987
0.351748
0.350559
0.349415
0.348304
0.347221
0.373824
0.371565
0.369405
0.367379
0.365434
0.363611
0.361857
0.360212
0.358627
0.357134
0.3557
0.354347
0.353046
0.3518
0.350581
0.349362
0.348116
0.34683
0.373825
0.371571
0.369423
0.36741
0.365466
0.363667
0.361911
0.360291
0.358698
0.357213
0.35577
0.354411
0.353087
0.351773
0.350412
0.348919
0.347233
0.345339
0.373818
0.371579
0.369489
0.367498
0.365589
0.363832
0.362084
0.360498
0.358854
0.357345
0.355821
0.354385
0.352935
0.351417
0.34966
0.347528
0.34477
0.341546
0.373748
0.371657
0.369781
0.367906
0.366137
0.364474
0.362744
0.361139
0.359305
0.357617
0.355814
0.354089
0.352308
0.350317
0.347715
0.344366
0.339442
0.333827
0.373533
0.372316
0.371186
0.369875
0.368493
0.367052
0.36532
0.36355
0.361142
0.358896
0.356329
0.353891
0.351381
0.348506
0.344461
0.339135
0.33061
0.321091
0.373771
0.376761
0.378902
0.380318
0.380226
0.379795
0.378509
0.37664
0.373051
0.369992
0.366369
0.363349
0.360488
0.357574
0.354013
0.347517
0.339057
0.326555
0.389338
0.417197
0.443266
0.465302
0.485238
0.499408
0.511423
0.521088
0.529972
0.538391
0.54785
0.558122
0.570764
0.583129
0.598137
0.611471
0.623886
0.63472
0.856249
1.18653
1.41269
1.5363
1.59255
1.59062
1.57981
1.55008
1.51361
1.47573
1.43897
1.40473
1.37349
1.34554
1.32027
1.29828
1.27822
1.26074
1.52706e-08
3.79628e-07
1.95626e-06
7.79554e-06
2.65734e-05
8.28054e-05
0.000218582
0.000435965
0.000707565
0.000989561
0.0012421
0.0014366
0.00156673
0.00161414
0.00159034
0.00152743
0.00140346
0.00119812
0.00101916
0.000867804
0.000725534
0.000587794
0.000454233
0.000330501
0.00021984
0.000132942
7.38695e-05
3.91398e-05
2.08812e-05
1.176e-05
7.29404e-06
5.24987e-06
5.63622e-06
9.50965e-06
1.662e-05
9.02657e-05
0.000213389
0.000537861
0.000892425
0.00112541
0.00108525
0.000911041
0.000723811
0.000541131
0.000472684
0.000532798
0.000680463
0.00107991
0.00173349
0.00408219
0.0111259
0.0341073
0.0721204
0.111544
0.141687
0.154834
0.157409
0.155116
0.156237
0.173162
0.165606
0.151907
0.16593
0.181698
0.146862
0.173087
0.175924
0.185879
0.193849
0.20158
0.209815
0.217307
0.225244
0.232732
0.240447
0.247923
0.255514
0.262962
0.270469
0.277871
0.285307
0.292649
0.3
0.307257
0.3145
0.321645
0.328744
0.335736
0.342645
0.349425
0.356102
0.362637
0.369038
0.375264
0.381317
0.38716
0.392792
0.39819
0.403354
0.408291
0.413017
0.417584
0.422034
0.42635
0.430465
0.434416
0.438185
0.441785
0.445211
0.448464
0.451556
0.454472
0.457241
0.459832
0.462289
0.464572
0.466733
0.468731
0.470612
0.472335
0.473939
0.475397
0.476745
0.477955
0.479047
0.479994
0.480792
0.481413
0.481791
0.481882
0.48163
0.482747
0.482416
0.482145
0.481446
0.481185
0.481026
0.480777
0.480656
0.480195
0.478949
0.477752
0.476338
0.474645
0.472813
0.470728
0.468548
0.466089
0.463565
0.460743
0.457889
0.45472
0.451559
0.448082
0.444649
0.440925
0.437111
0.433281
0.429141
0.42506
0.420703
0.416448
0.412074
0.407737
0.403395
0.399089
0.39482
0.390606
0.386456
0.382383
0.378399
0.374501
0.370704
0.366982
0.363299
0.35956
0.355644
0.351174
0.345643
0.328776
8.11731e-08
2.31592e-06
1.57642e-05
6.81574e-05
0.000257528
0.00071595
0.00167128
0.00301474
0.00457448
0.00616255
0.00760687
0.00879154
0.00966632
0.0102292
0.0104974
0.0104693
0.0102753
0.00994546
0.00940397
0.00864925
0.00768531
0.00656886
0.00533752
0.0040982
0.00288598
0.00194177
0.00125727
0.000794739
0.000496202
0.000311599
0.00020532
0.000148051
0.000129486
0.000161029
0.000177423
0.00103894
0.00236259
0.0054039
0.00844525
0.0106766
0.0111418
0.0107196
0.00952162
0.00812803
0.00859214
0.0113637
0.016521
0.0239352
0.0375808
0.0600102
0.0850623
0.110455
0.133541
0.151575
0.166271
0.179885
0.19284
0.206398
0.224383
0.239631
0.255893
0.273482
0.292495
0.310835
0.328262
0.34826
0.366604
0.384906
0.403142
0.420974
0.438791
0.456348
0.473893
0.491302
0.508713
0.526068
0.543445
0.560804
0.578196
0.595584
0.613006
0.630422
0.64786
0.665281
0.682704
0.700091
0.717448
0.73474
0.751947
0.769057
0.786036
0.80289
0.819574
0.836058
0.852307
0.868284
0.883955
0.899277
0.91422
0.928742
0.942817
0.95641
0.969498
0.982197
0.994559
1.00658
1.01824
1.02955
1.04049
1.05107
1.06127
1.07112
1.08059
1.0897
1.09844
1.10683
1.11487
1.12257
1.12992
1.13694
1.14364
1.15002
1.1561
1.16188
1.16737
1.17255
1.17744
1.18202
1.18629
1.19023
1.19386
1.19728
1.2002
1.20273
1.20474
1.20563
1.20827
1.20868
1.21096
1.21164
1.21225
1.21211
1.21256
1.21165
1.21035
1.20855
1.2062
1.20337
1.19996
1.19609
1.19163
1.18673
1.18124
1.17535
1.16891
1.16208
1.15479
1.14701
1.13889
1.13029
1.12144
1.1123
1.10297
1.09348
1.08386
1.07417
1.06443
1.05468
1.04494
1.03525
1.02564
1.01612
1.00671
0.997386
0.988106
0.978766
0.969117
0.958814
0.946124
0.917703
2.14478e-07
6.3915e-06
4.85453e-05
0.000220192
0.000814928
0.00198196
0.00401502
0.006355
0.00869646
0.0108081
0.0125722
0.0139248
0.0148729
0.0154426
0.0157006
0.0156754
0.0154846
0.0151413
0.0146255
0.0139826
0.0132108
0.0122989
0.0112348
0.0100142
0.00866622
0.00712661
0.00554231
0.00408871
0.00284012
0.00191511
0.00133176
0.000991702
0.000777972
0.000897697
0.00127912
0.00469857
0.0102859
0.0174814
0.0233363
0.0270986
0.0288257
0.0285713
0.0288171
0.0326761
0.0440398
0.0608507
0.0775238
0.0961849
0.117122
0.137485
0.157837
0.179017
0.200177
0.222331
0.245938
0.270964
0.298014
0.324969
0.353151
0.38131
0.409366
0.437026
0.464415
0.491178
0.517411
0.543224
0.568479
0.593259
0.617723
0.641831
0.665718
0.689389
0.712918
0.736318
0.759632
0.78287
0.80606
0.829201
0.852306
0.875371
0.898402
0.921387
0.944327
0.967207
0.990021
1.01275
1.03539
1.05791
1.0803
1.10252
1.12457
1.14644
1.16809
1.1895
1.21063
1.23146
1.25197
1.27215
1.29196
1.3114
1.33046
1.34912
1.36736
1.38516
1.4025
1.41937
1.43574
1.45161
1.46696
1.48179
1.49609
1.50986
1.52308
1.53578
1.54794
1.55959
1.57072
1.58134
1.59146
1.60109
1.61025
1.61896
1.62723
1.63507
1.64249
1.6495
1.65609
1.66228
1.66805
1.67341
1.67836
1.6829
1.68696
1.69056
1.69365
1.69621
1.69867
1.69995
1.70139
1.70193
1.70195
1.70146
1.70055
1.69876
1.69627
1.69311
1.68918
1.68457
1.67916
1.6731
1.66624
1.65875
1.65048
1.64163
1.63205
1.62191
1.6112
1.59987
1.58814
1.57587
1.5633
1.55036
1.5372
1.52384
1.51035
1.49678
1.48318
1.46958
1.45604
1.44259
1.42927
1.4161
1.40312
1.39033
1.37772
1.36521
1.3526
1.33964
1.3245
1.29828
8.06887e-07
2.42885e-05
0.000189736
0.000777334
0.00224548
0.0052646
0.00881905
0.0122555
0.015218
0.0175521
0.019236
0.0203132
0.0208865
0.0210193
0.0209063
0.020589
0.0200664
0.019429
0.0187071
0.0179159
0.0170595
0.0161345
0.0151269
0.0140131
0.012781
0.0114053
0.00990699
0.00834725
0.00686311
0.00543294
0.0043294
0.00328824
0.00306388
0.00396481
0.00826976
0.0191717
0.0313795
0.0412526
0.048349
0.0531851
0.0578563
0.0651396
0.0760501
0.0898234
0.104632
0.119419
0.135501
0.1543
0.17554
0.197965
0.223007
0.249666
0.278143
0.308278
0.339787
0.372189
0.405153
0.438197
0.471319
0.504159
0.536607
0.568624
0.600122
0.631082
0.661542
0.691521
0.721077
0.75024
0.779109
0.807709
0.836105
0.864326
0.892411
0.920381
0.94826
0.976061
1.0038
1.03147
1.05909
1.08665
1.11415
1.14159
1.16897
1.19626
1.22347
1.25058
1.27758
1.30445
1.33117
1.35772
1.38409
1.41026
1.4362
1.46188
1.48729
1.51239
1.53717
1.5616
1.58565
1.60931
1.63254
1.65532
1.67761
1.69937
1.72059
1.74122
1.76126
1.78068
1.79947
1.8176
1.83508
1.85188
1.86802
1.88348
1.89828
1.91241
1.92588
1.93871
1.9509
1.96246
1.97342
1.9838
1.99361
2.00288
2.0116
2.0198
2.02747
2.03462
2.04126
2.04738
2.05299
2.05806
2.06257
2.06653
2.06989
2.07267
2.0749
2.07612
2.07678
2.07667
2.07605
2.07468
2.07258
2.06961
2.0658
2.06116
2.05563
2.04927
2.04201
2.03394
2.02499
2.01525
2.00467
1.99337
1.98128
1.96852
1.95512
1.94106
1.9265
1.91141
1.89594
1.8801
1.86401
1.8477
1.83126
1.81475
1.79823
1.78173
1.76531
1.74902
1.7329
1.717
1.70137
1.68603
1.67098
1.65619
1.64153
1.62679
1.6104
1.58642
2.69063e-06
8.04386e-05
0.000598861
0.00231295
0.00628166
0.0115795
0.0164726
0.0203535
0.0231102
0.0248476
0.0257588
0.0260451
0.0259262
0.0255467
0.0249064
0.0241398
0.0232976
0.0224151
0.0215156
0.0206079
0.0196905
0.0187557
0.0177901
0.0167695
0.0156724
0.0144663
0.0131349
0.0117153
0.0103149
0.00897269
0.00750163
0.00731954
0.0093081
0.01712
0.0332401
0.0495498
0.0634151
0.0740775
0.0823227
0.0900703
0.0987561
0.108624
0.119704
0.132014
0.146234
0.163354
0.183696
0.206903
0.233089
0.26133
0.291699
0.323459
0.35656
0.390598
0.425288
0.460358
0.49564
0.530988
0.566327
0.601532
0.63651
0.671228
0.705619
0.739684
0.773436
0.806876
0.840043
0.872961
0.905677
0.938217
0.970616
1.0029
1.03508
1.06718
1.0992
1.13116
1.16307
1.19491
1.2267
1.25843
1.29009
1.32168
1.3532
1.38463
1.41597
1.4472
1.47831
1.50928
1.5401
1.57073
1.60118
1.63141
1.66141
1.69114
1.72057
1.74968
1.77844
1.80682
1.83478
1.86229
1.88932
1.91582
1.94176
1.9671
1.99181
2.01586
2.03922
2.06186
2.08376
2.1049
2.12527
2.14485
2.16364
2.18162
2.19881
2.2152
2.23081
2.24562
2.25966
2.27295
2.28549
2.29733
2.30847
2.31893
2.32872
2.33787
2.34636
2.35423
2.36147
2.36808
2.37406
2.3794
2.38408
2.3881
2.39142
2.39404
2.39585
2.39664
2.39664
2.39599
2.39456
2.39226
2.38909
2.38497
2.3799
2.37389
2.3669
2.35896
2.35004
2.34019
2.32938
2.31768
2.30508
2.29165
2.27739
2.26237
2.24664
2.23024
2.21325
2.19573
2.17777
2.15943
2.14079
2.12194
2.10294
2.08387
2.06478
2.04574
2.0268
2.00802
1.98944
1.97113
1.95315
1.93552
1.91829
1.90146
1.88494
1.8686
1.85108
1.82805
8.45841e-06
0.000247
0.00176819
0.00626667
0.0139187
0.020589
0.0253251
0.0282707
0.0298648
0.030524
0.0305183
0.0301827
0.0294641
0.0285417
0.0275089
0.0264282
0.0253448
0.0242867
0.0232695
0.0222953
0.0213576
0.0204424
0.0195292
0.0185867
0.0175948
0.0165018
0.0152608
0.0138385
0.0122831
0.0115895
0.0126593
0.0177697
0.0302652
0.04952
0.0691271
0.0857434
0.0983438
0.107424
0.114661
0.121776
0.129806
0.1393
0.151599
0.167081
0.185909
0.208156
0.233712
0.26189
0.292174
0.323887
0.356838
0.390669
0.42525
0.460438
0.496108
0.532159
0.568526
0.605139
0.641932
0.678819
0.715718
0.752591
0.789397
0.826113
0.862728
0.899232
0.935636
0.971949
1.00819
1.04437
1.0805
1.11659
1.15264
1.18867
1.22466
1.26063
1.29656
1.33244
1.36828
1.40406
1.43978
1.47543
1.511
1.54649
1.58188
1.61716
1.65232
1.68734
1.72219
1.75688
1.79135
1.8256
1.8596
1.89333
1.92673
1.95979
1.99247
2.02472
2.05651
2.0878
2.11853
2.14868
2.1782
2.20704
2.23518
2.26256
2.28917
2.31496
2.33991
2.36399
2.38718
2.40947
2.43084
2.45128
2.47079
2.48936
2.50701
2.52372
2.53953
2.55443
2.56846
2.58164
2.59399
2.60552
2.61626
2.62622
2.63541
2.64385
2.65154
2.6585
2.66471
2.67018
2.67489
2.67884
2.68198
2.68431
2.68563
2.68594
2.6854
2.68406
2.68183
2.67863
2.67444
2.66924
2.663
2.65571
2.64736
2.63797
2.62752
2.61604
2.60354
2.59006
2.57561
2.56025
2.544
2.52692
2.50907
2.49051
2.4713
2.45152
2.43126
2.41059
2.3896
2.36836
2.34696
2.32548
2.30399
2.28254
2.26121
2.24004
2.21911
2.19847
2.1782
2.15835
2.13898
2.12011
2.10171
2.08366
2.06481
2.0417
2.63137e-05
0.000724323
0.00471707
0.0143731
0.0234594
0.029303
0.0325991
0.0342542
0.0348448
0.0347365
0.0341747
0.0331952
0.0319936
0.0306709
0.0293085
0.0279664
0.0266862
0.0254907
0.0243883
0.0233732
0.0224314
0.0215383
0.0206628
0.0197488
0.0187825
0.0178657
0.0171147
0.0168022
0.0176371
0.0213522
0.030414
0.047012
0.0673303
0.0870392
0.103928
0.116454
0.124963
0.131244
0.137203
0.14426
0.154141
0.16736
0.18415
0.204501
0.228263
0.254982
0.284034
0.314712
0.346561
0.379302
0.412841
0.447066
0.481927
0.517376
0.553381
0.589912
0.626946
0.66443
0.7023
0.740497
0.778968
0.817669
0.856554
0.895589
0.934748
0.974013
1.01337
1.05282
1.09235
1.13197
1.17166
1.21142
1.25124
1.29111
1.33101
1.37093
1.41085
1.45076
1.49064
1.53048
1.57027
1.61
1.64965
1.68922
1.7287
1.76806
1.80731
1.84642
1.88536
1.92412
1.96267
2.001
2.03906
2.07682
2.11425
2.1513
2.18793
2.2241
2.25976
2.29486
2.32935
2.36318
2.39631
2.42869
2.46028
2.49104
2.52091
2.54988
2.57789
2.60492
2.63094
2.65593
2.67987
2.70275
2.72456
2.74529
2.76494
2.78352
2.80104
2.81752
2.83297
2.84743
2.86091
2.87345
2.88504
2.89573
2.90552
2.91444
2.92249
2.92969
2.93606
2.94156
2.94622
2.95
2.9529
2.95483
2.95565
2.95545
2.95437
2.95233
2.94929
2.94522
2.94007
2.93383
2.92646
2.91797
2.90834
2.89758
2.88569
2.87269
2.85859
2.84343
2.82723
2.81004
2.7919
2.77287
2.75301
2.73237
2.71104
2.68909
2.66661
2.64369
2.62041
2.59686
2.57313
2.5493
2.52544
2.50163
2.47792
2.45439
2.43111
2.40814
2.38556
2.36345
2.34187
2.32088
2.30047
2.28056
2.26011
2.23616
7.65342e-05
0.00194983
0.0109706
0.023864
0.0319091
0.0363012
0.0385025
0.0393139
0.0392039
0.0384986
0.0372799
0.0357793
0.0341257
0.032423
0.0307532
0.0291755
0.0277271
0.0264239
0.0252662
0.0242415
0.0233266
0.022488
0.0216685
0.0208564
0.0202046
0.0199525
0.0208048
0.024137
0.031833
0.0453339
0.0633485
0.0822854
0.100587
0.116158
0.127865
0.135854
0.141673
0.147462
0.155171
0.165897
0.180138
0.197997
0.21932
0.243721
0.270671
0.299533
0.329781
0.360997
0.392978
0.42565
0.458997
0.493014
0.527711
0.5631
0.599189
0.635973
0.67343
0.711527
0.75023
0.789495
0.829279
0.869534
0.91022
0.951298
0.992738
1.03451
1.0766
1.11897
1.16162
1.20453
1.24767
1.29101
1.33454
1.37823
1.42203
1.46592
1.50988
1.55387
1.59786
1.64183
1.68577
1.72966
1.77348
1.81723
1.86089
1.90444
1.94788
1.99117
2.03431
2.07726
2.12
2.16249
2.20472
2.24662
2.28816
2.3293
2.36998
2.41015
2.44976
2.48876
2.52708
2.56467
2.60148
2.63746
2.67256
2.70673
2.73992
2.77208
2.80318
2.83317
2.86203
2.88972
2.91623
2.94153
2.96561
2.98847
3.01009
3.03049
3.04967
3.06766
3.08448
3.10016
3.11471
3.12816
3.14054
3.15187
3.16218
3.17149
3.17982
3.18719
3.19361
3.19908
3.20359
3.20714
3.20971
3.21118
3.21152
3.21079
3.20907
3.20631
3.20247
3.19752
3.19142
3.18416
3.17571
3.16606
3.1552
3.14312
3.12985
3.11539
3.09976
3.08298
3.0651
3.04616
3.02619
3.00527
2.98344
2.96078
2.93738
2.91331
2.88867
2.86354
2.83801
2.81219
2.78614
2.75998
2.73376
2.70758
2.68148
2.65556
2.62988
2.60453
2.5796
2.55515
2.53129
2.50807
2.4855
2.46353
2.44121
2.41588
0.000193106
0.0045164
0.0197664
0.0324543
0.0391777
0.042528
0.0439254
0.0440581
0.0433741
0.0420276
0.0402798
0.038296
0.0362162
0.0341559
0.0322052
0.0304274
0.0288611
0.0275224
0.0264117
0.025533
0.0248788
0.0244683
0.0244335
0.0249855
0.0264802
0.0295363
0.0352675
0.0455698
0.0595607
0.0758179
0.0928336
0.108836
0.122586
0.133302
0.141245
0.147708
0.154491
0.163253
0.17498
0.190124
0.208664
0.23031
0.25462
0.281115
0.30927
0.338607
0.368795
0.399662
0.431163
0.463317
0.496163
0.529745
0.564107
0.599287
0.635305
0.672164
0.709867
0.748403
0.787748
0.827874
0.868745
0.910325
0.952578
0.995468
1.03897
1.08304
1.12766
1.1728
1.21843
1.26452
1.31103
1.35792
1.40514
1.45265
1.5004
1.54832
1.59639
1.64455
1.69276
1.74098
1.78919
1.83737
1.8855
1.93356
1.98153
2.02941
2.07718
2.1248
2.17227
2.21954
2.2666
2.3134
2.35991
2.40608
2.45187
2.4972
2.54203
2.58631
2.62997
2.67294
2.71516
2.75658
2.79713
2.83675
2.87539
2.91299
2.9495
2.98487
3.01904
3.05197
3.08363
3.11398
3.143
3.17066
3.19695
3.22185
3.24536
3.26749
3.28826
3.30767
3.32577
3.34256
3.35808
3.37235
3.38541
3.39729
3.40801
3.41761
3.42612
3.43355
3.43993
3.44526
3.44953
3.45276
3.45491
3.45586
3.45567
3.45433
3.45192
3.44839
3.44371
3.43786
3.43081
3.42253
3.413
3.4022
3.39013
3.37677
3.36215
3.34626
3.32914
3.3108
3.29128
3.27063
3.24888
3.2261
3.20236
3.17773
3.1523
3.12615
3.09938
3.07208
3.04435
3.01627
2.98794
2.95944
2.93087
2.9023
2.8738
2.84546
2.81736
2.78959
2.76223
2.73539
2.70915
2.68359
2.65873
2.63455
2.61014
2.58301
0.000420132
0.0089935
0.0286758
0.0402368
0.0459369
0.048552
0.0493323
0.0489065
0.0476303
0.0457603
0.0435173
0.0410846
0.038621
0.0362587
0.0341011
0.0322212
0.0306669
0.0294694
0.0286203
0.0281786
0.0281134
0.0286245
0.0300762
0.0331177
0.0384933
0.0467621
0.0579266
0.0709164
0.0851847
0.0997139
0.113406
0.125355
0.135286
0.143519
0.150982
0.159029
0.168971
0.18168
0.197468
0.216264
0.237757
0.261546
0.287196
0.314281
0.342425
0.37135
0.400905
0.431056
0.461832
0.493296
0.525518
0.558566
0.592501
0.627363
0.66319
0.700007
0.73783
0.776661
0.816493
0.85731
0.899091
0.941813
0.985448
1.02997
1.07535
1.12157
1.16858
1.21636
1.26487
1.31407
1.3639
1.41431
1.46524
1.51661
1.56835
1.62039
1.67266
1.72509
1.77764
1.83025
1.88288
1.9355
1.98808
2.04061
2.09307
2.14544
2.1977
2.24982
2.30176
2.35351
2.40503
2.45628
2.50723
2.5578
2.60795
2.65759
2.70669
2.75516
2.80294
2.84995
2.89613
2.9414
2.98569
3.02896
3.07113
3.11214
3.15194
3.19045
3.22764
3.26343
3.29779
3.33069
3.3621
3.39199
3.42034
3.44714
3.47239
3.49611
3.5183
3.53898
3.55819
3.57595
3.59228
3.60723
3.62082
3.63309
3.64408
3.65382
3.66236
3.66972
3.67593
3.68099
3.68491
3.68769
3.68929
3.68966
3.68881
3.68679
3.6836
3.67923
3.67366
3.66687
3.65883
3.64951
3.63888
3.62693
3.61365
3.59903
3.58307
3.56579
3.5472
3.52734
3.50622
3.48389
3.4604
3.43582
3.41021
3.38366
3.35624
3.32807
3.29921
3.26979
3.23987
3.20957
3.17897
3.14816
3.11724
3.08628
3.05536
3.02458
2.99403
2.96379
2.93398
2.90468
2.87599
2.848
2.82074
2.79422
2.76758
2.7386
0.000784794
0.0153322
0.0365817
0.047345
0.0524509
0.0545895
0.0549361
0.0540566
0.0523171
0.0500013
0.0473489
0.0445687
0.0418434
0.0393275
0.0371469
0.0354034
0.0341584
0.0335407
0.0334565
0.0340685
0.0356558
0.0385551
0.0431193
0.0495727
0.0579873
0.0681726
0.0797025
0.0919178
0.104159
0.115766
0.12631
0.135698
0.144242
0.152648
0.161914
0.172985
0.186486
0.202643
0.221366
0.242383
0.265343
0.289889
0.315687
0.342449
0.369954
0.398071
0.42676
0.45605
0.486008
0.516719
0.548268
0.580733
0.614176
0.64866
0.684234
0.720937
0.758798
0.797833
0.838051
0.879453
0.922034
0.965785
1.01069
1.05674
1.10391
1.15216
1.20149
1.25184
1.30318
1.35544
1.40858
1.46251
1.51716
1.57242
1.6282
1.68441
1.74096
1.79777
1.85476
1.91187
1.96905
2.02625
2.08346
2.14064
2.19775
2.25479
2.31171
2.36848
2.42509
2.48147
2.53761
2.59346
2.64897
2.70408
2.7587
2.81276
2.86619
2.91891
2.97084
3.02191
3.07204
3.12113
3.16914
3.21598
3.2616
3.30593
3.34889
3.39043
3.43048
3.46898
3.50588
3.54114
3.57473
3.60662
3.63679
3.66525
3.69199
3.71704
3.74041
3.76212
3.7822
3.80069
3.8176
3.83298
3.84687
3.85931
3.87035
3.88003
3.88839
3.89548
3.90133
3.90595
3.90935
3.91152
3.91244
3.91209
3.91046
3.90759
3.90351
3.8982
3.89166
3.88386
3.87477
3.86436
3.8526
3.83948
3.82498
3.80909
3.79181
3.77316
3.75314
3.73177
3.7091
3.68514
3.65998
3.63365
3.60624
3.57782
3.5485
3.51835
3.48749
3.45599
3.42396
3.3915
3.35868
3.3256
3.29235
3.25902
3.2257
3.1925
3.1595
3.12681
3.09452
3.06274
3.03157
3.00109
2.97136
2.9424
2.91343
2.88243
0.00124066
0.0219464
0.0440595
0.0544658
0.0592145
0.0609702
0.0609949
0.0597576
0.0576592
0.0550212
0.0521219
0.0492013
0.0464662
0.0441016
0.0422653
0.0411435
0.0407654
0.0410835
0.0423734
0.0447487
0.0483704
0.0533742
0.0598151
0.0676166
0.076591
0.0864392
0.0967395
0.107057
0.117061
0.126583
0.135653
0.144543
0.153797
0.164099
0.176071
0.190116
0.20638
0.224772
0.24507
0.266993
0.290265
0.314632
0.339884
0.365853
0.392435
0.419586
0.447327
0.475718
0.504846
0.534804
0.565681
0.59756
0.630521
0.664634
0.699958
0.736546
0.774438
0.813669
0.854262
0.896239
0.939612
0.984389
1.03057
1.07814
1.1271
1.17742
1.22907
1.28202
1.3362
1.39155
1.448
1.50545
1.56382
1.62297
1.6828
1.74319
1.80404
1.86524
1.92671
1.9884
2.05023
2.11215
2.17413
2.23611
2.29805
2.35992
2.42168
2.48329
2.5447
2.60587
2.66676
2.72733
2.78751
2.84723
2.90639
2.96491
3.0227
3.07967
3.13573
3.1908
3.24479
3.29761
3.34919
3.39946
3.44836
3.4958
3.54172
3.58605
3.62872
3.66967
3.70883
3.74616
3.78162
3.81517
3.84681
3.87657
3.90444
3.93046
3.95465
3.97704
3.99764
4.0165
4.03364
4.04912
4.06298
4.07527
4.08605
4.09536
4.10326
4.1098
4.11502
4.11895
4.12159
4.12295
4.12301
4.12175
4.11914
4.11524
4.11011
4.10373
4.0961
4.08718
4.07695
4.06538
4.05244
4.03811
4.02237
4.00521
3.98663
3.96662
3.94521
3.9224
3.89823
3.87273
3.84596
3.81798
3.78886
3.75869
3.72756
3.69555
3.66276
3.6293
3.59525
3.56071
3.52576
3.49049
3.45499
3.41936
3.38369
3.34811
3.31271
3.2776
3.24287
3.20863
3.17497
3.14199
3.10975
3.07832
3.04696
3.01388
0.00181174
0.0279105
0.0508575
0.061384
0.0660987
0.0677043
0.0675296
0.0660417
0.0636955
0.0608928
0.0579712
0.055207
0.0528187
0.0509782
0.0499508
0.0496662
0.0501802
0.0517549
0.0543915
0.0581093
0.0629287
0.068838
0.0757292
0.0834309
0.091744
0.100446
0.109318
0.118221
0.127106
0.136061
0.145336
0.155305
0.166398
0.178994
0.193327
0.209459
0.227316
0.246725
0.267482
0.28938
0.31224
0.335908
0.360275
0.38526
0.410834
0.437006
0.463831
0.491381
0.519751
0.549035
0.579328
0.610722
0.643304
0.677154
0.712342
0.748925
0.786961
0.826503
0.867595
0.910275
0.954575
1.00052
1.04812
1.09739
1.14832
1.20089
1.25505
1.31076
1.36794
1.4265
1.48636
1.5474
1.60949
1.6725
1.73631
1.80077
1.86579
1.93128
1.99714
2.06333
2.12978
2.19644
2.26324
2.33011
2.39699
2.46382
2.53054
2.5971
2.66344
2.72948
2.79521
2.86055
2.92543
2.98978
3.05348
3.11643
3.17851
3.23964
3.29968
3.35858
3.41623
3.47257
3.52748
3.58091
3.63278
3.68302
3.73155
3.77831
3.82322
3.86621
3.90724
3.94624
3.98317
4.01792
4.05057
4.08113
4.10967
4.13619
4.16073
4.1833
4.20395
4.2227
4.23962
4.25474
4.26812
4.27982
4.28991
4.29843
4.30547
4.31108
4.31531
4.3182
4.31977
4.32003
4.31897
4.3165
4.31264
4.30751
4.30113
4.29349
4.2846
4.27442
4.26293
4.2501
4.23591
4.22032
4.20331
4.18487
4.165
4.1437
4.12096
4.09678
4.07119
4.04425
4.01599
3.98649
3.9558
3.92402
3.89122
3.8575
3.82295
3.78766
3.75173
3.71526
3.67832
3.641
3.60336
3.56554
3.52764
3.48979
3.45209
3.41465
3.37756
3.34092
3.30483
3.26939
3.23468
3.2008
3.16706
3.13191
0.0024799
0.0330485
0.0576152
0.0684878
0.0732348
0.074746
0.0744045
0.0727314
0.0702254
0.0673722
0.0646266
0.0623047
0.0605797
0.0596148
0.0593251
0.0597868
0.0613172
0.0638177
0.0672451
0.0715734
0.0767482
0.0826878
0.0892737
0.0963963
0.103952
0.111867
0.120095
0.128659
0.137664
0.147302
0.157808
0.169423
0.18235
0.196703
0.212502
0.229675
0.248107
0.267649
0.288165
0.309529
0.331648
0.354445
0.377881
0.401931
0.426613
0.45197
0.478072
0.505
0.53284
0.561685
0.591632
0.622777
0.655213
0.689027
0.724302
0.761119
0.799555
0.839685
0.881579
0.925296
0.970892
1.01841
1.06787
1.1193
1.17268
1.22799
1.28516
1.3441
1.4047
1.46683
1.53034
1.59508
1.66089
1.72761
1.79512
1.86332
1.93215
2.00154
2.07138
2.14175
2.21257
2.28377
2.35526
2.42694
2.49871
2.57046
2.64213
2.71363
2.78487
2.85581
2.92634
2.99639
3.06587
3.13471
3.20279
3.26999
3.33617
3.4012
3.46494
3.52733
3.58831
3.64776
3.7056
3.76175
3.81613
3.86866
3.91928
3.96792
4.01451
4.05899
4.10129
4.14139
4.17923
4.21474
4.24796
4.27893
4.30767
4.33422
4.3586
4.38084
4.40098
4.41908
4.43519
4.44936
4.46167
4.47218
4.48097
4.4881
4.49368
4.49776
4.50042
4.50171
4.50167
4.50034
4.49769
4.49361
4.48822
4.48157
4.47367
4.46454
4.45418
4.44255
4.42965
4.41545
4.3999
4.38299
4.36469
4.34499
4.32386
4.30131
4.27733
4.25188
4.22501
4.19678
4.16721
4.13636
4.10431
4.07111
4.03684
4.00161
3.96549
3.92857
3.89096
3.85275
3.81402
3.77484
3.73525
3.69541
3.65545
3.6155
3.57567
3.53604
3.49674
3.45784
3.41943
3.38163
3.34453
3.30827
3.27222
3.23512
0.00321124
0.0385015
0.0642713
0.0755196
0.0803705
0.081839
0.0813369
0.0793881
0.0767432
0.0740499
0.071751
0.0700783
0.0691951
0.0689111
0.0691816
0.0704536
0.0726215
0.0756209
0.0793885
0.0838775
0.0890299
0.0947932
0.101114
0.107965
0.115324
0.123206
0.131659
0.140775
0.150675
0.161498
0.173357
0.186346
0.200509
0.215835
0.232274
0.249741
0.26815
0.287413
0.307463
0.328246
0.349735
0.371908
0.394756
0.418269
0.442488
0.467469
0.493285
0.520018
0.54776
0.576603
0.60664
0.637977
0.670712
0.704948
0.740786
0.778334
0.817697
0.858982
0.902291
0.947716
0.99534
1.04522
1.09738
1.15186
1.20861
1.2676
1.3287
1.39176
1.45657
1.52292
1.59053
1.65916
1.72856
1.7986
1.86914
1.94022
2.012
2.08443
2.15753
2.23155
2.30621
2.38143
2.45714
2.53319
2.60942
2.68572
2.76196
2.83806
2.9139
2.9894
3.06443
3.13887
3.2126
3.28557
3.35763
3.42863
3.49842
3.56685
3.63379
3.6992
3.76299
3.82503
3.88524
3.94351
3.99978
4.05397
4.10602
4.15585
4.20342
4.24866
4.29152
4.33197
4.37002
4.40571
4.43897
4.46978
4.49813
4.52409
4.54766
4.5689
4.58786
4.60461
4.6192
4.63171
4.64222
4.65081
4.65758
4.6626
4.66599
4.66782
4.66824
4.66724
4.66504
4.66139
4.65649
4.65036
4.64301
4.63444
4.62466
4.6137
4.60156
4.58824
4.57371
4.55795
4.54092
4.5226
4.50296
4.48197
4.45961
4.43587
4.41074
4.38418
4.35623
4.32691
4.29626
4.26432
4.23115
4.19679
4.16133
4.12484
4.08742
4.04914
4.01011
3.97042
3.93015
3.88937
3.84809
3.80649
3.76473
3.72293
3.68118
3.63959
3.59827
3.55731
3.51677
3.47677
3.43744
3.39896
3.36072
3.32188
0.0039683
0.0439057
0.0708906
0.0825222
0.0874823
0.0888873
0.0881976
0.0860602
0.0834854
0.0811681
0.0794547
0.0785328
0.0782063
0.0783386
0.0792844
0.0810588
0.0836082
0.0868839
0.090831
0.095427
0.100646
0.106484
0.112935
0.120024
0.127779
0.136256
0.145513
0.155624
0.166639
0.178602
0.191553
0.205499
0.220417
0.236262
0.252994
0.270559
0.288926
0.308058
0.327957
0.34862
0.370087
0.392348
0.415353
0.439083
0.463645
0.489091
0.5155
0.542942
0.571527
0.6013
0.632348
0.664775
0.698697
0.734234
0.771519
0.810699
0.851915
0.895317
0.941049
0.989269
1.04008
1.09354
1.14967
1.20846
1.26986
1.33376
1.39997
1.46824
1.53824
1.6096
1.68188
1.75464
1.82733
1.89996
1.97273
2.04602
2.12017
2.19522
2.27127
2.34805
2.42533
2.50326
2.58187
2.66108
2.7406
2.82033
2.90011
2.97983
3.05941
3.13868
3.21746
3.2956
3.37298
3.44941
3.52472
3.59874
3.67131
3.74232
3.81171
3.87937
3.94514
4.00891
4.07055
4.12999
4.18715
4.24198
4.29444
4.34446
4.39198
4.43695
4.47932
4.51907
4.5562
4.5907
4.62256
4.65178
4.67838
4.70243
4.72397
4.74306
4.75978
4.7742
4.78639
4.79644
4.80442
4.81045
4.81463
4.81702
4.81775
4.81691
4.8149
4.81129
4.80633
4.80004
4.79254
4.78385
4.77399
4.76299
4.75088
4.73769
4.72343
4.70811
4.69171
4.67421
4.65558
4.63577
4.61475
4.59249
4.56897
4.54415
4.51802
4.49057
4.4618
4.43169
4.40025
4.36752
4.33353
4.29834
4.26199
4.22457
4.18615
4.14682