/*--------------------------------*- C++ -*----------------------------------*\
  =========                 |
  \\      /  F ield         | OpenFOAM: The Open Source CFD Toolbox
   \\    /   O peration     | Website:  https://openfoam.org
    \\  /    A nd           | Version:  13
     \\/     M anipulation  |
\*---------------------------------------------------------------------------*/
FoamFile
{
    format      ascii;
    class       volScalarField;
    location    "1300";
    object      nut;
}
// * * * * * * * * * * * * * * * * * * * * * * * * * * * * * * * * * * * * * //

dimensions      [0 2 -1 0 0 0 0];

internalField   nonuniform List<scalar> 
12225
(
3.14341e-06
2.33309e-05
2.09832e-05
1.74554e-05
3.08747e-05
2.47504e-05
2.11082e-05
1.90366e-05
1.54405e-05
3.17912e-05
3.73749e-05
3.65831e-05
2.96135e-05
2.06792e-05
2.13485e-05
1.73661e-05
1.66425e-05
1.60258e-05
3.34858e-05
1.79187e-05
1.87436e-05
9.7763e-06
1.35271e-05
1.50454e-05
1.51673e-05
1.72646e-05
1.75224e-05
1.88562e-05
2.444e-05
1.96082e-05
2.35833e-05
2.20352e-05
2.23649e-05
2.51018e-05
2.70661e-05
3.11495e-05
0.000113995
0.000852519
2.57655e-05
2.93228e-05
1.05808e-05
7.8157e-06
4.87474e-06
4.82371e-06
3.61445e-06
4.08458e-06
4.73422e-06
4.53251e-06
5.13864e-06
5.34585e-06
4.25826e-06
7.01512e-06
7.45919e-06
9.03085e-06
0.00223005
8.78193e-05
0.000105119
4.48969e-05
1.48052e-05
8.1129e-06
5.759e-06
3.77823e-06
3.74305e-06
3.46638e-06
3.69212e-06
3.99649e-06
5.38745e-06
4.54391e-06
5.72266e-06
6.07277e-06
5.54786e-06
5.68735e-06
0.000129578
0.00018723
0.000134247
3.72169e-05
5.1429e-05
4.1219e-05
3.2233e-05
2.17849e-05
2.41392e-05
1.72596e-05
2.07481e-05
1.7857e-05
1.84823e-05
1.91035e-05
1.98198e-05
2.0895e-05
2.1995e-05
2.37711e-05
7.62812e-05
9.72236e-05
0.000102685
7.23857e-05
8.80115e-05
6.33593e-05
6.66835e-05
5.56451e-05
5.10975e-05
4.99633e-05
5.40598e-05
5.88397e-05
5.92039e-05
6.28762e-05
6.60117e-05
7.13064e-05
7.47855e-05
7.65007e-05
0.000168918
0.000239728
0.000264417
0.000241508
0.000220432
0.000173583
0.000177632
0.000171636
0.000165949
0.000161784
0.000159349
0.000157914
0.000160227
0.000162942
0.000154951
0.000155568
0.000169798
0.000183584
0.000519478
0.000454293
0.000450162
0.000455034
0.000425298
0.000400321
0.00035661
0.000343826
0.000343999
0.000329502
0.000326071
0.000334504
0.000360366
0.000331179
0.000341698
0.00034631
0.000331428
0.000333629
0.000778055
0.000723172
0.000688966
0.000689318
0.000657131
0.000629529
0.000577995
0.000550988
0.00054172
0.000530465
0.000545264
0.000518633
0.000528937
0.000529279
0.000524755
0.00051805
0.000509666
0.000493685
0.000841612
0.000822572
0.0008106
0.000806179
0.000789865
0.00076981
0.000741252
0.000714979
0.000705226
0.000693671
0.000701196
0.000678423
0.000684952
0.000681984
0.000669991
0.00065694
0.000639779
0.000635618
0.00085102
0.000844793
0.000846562
0.000840471
0.000835471
0.000826547
0.000816597
0.000804244
0.000799305
0.000786656
0.000783409
0.000776562
0.000775341
0.000773182
0.000765733
0.000757236
0.000744451
0.000738947
0.000852553
0.000849077
0.00084997
0.000848062
0.000847444
0.00084403
0.000839907
0.000835663
0.000834075
0.000827751
0.000824351
0.000823255
0.000818514
0.00081601
0.000812107
0.000806947
0.000800025
0.000795925
0.000851808
0.000850382
0.000850003
0.000849132
0.000848284
0.00084699
0.000845614
0.000844187
0.000843134
0.000842108
0.000840796
0.000839588
0.000837747
0.000835953
0.000834796
0.000832098
0.000829609
0.000826804
0.000851592
0.000850617
0.000849897
0.000849114
0.000848388
0.000847572
0.000846823
0.000846023
0.000845383
0.000844716
0.000844126
0.000843416
0.000842691
0.000841725
0.000840915
0.000839688
0.000838765
0.0008374
0.000851551
0.000850663
0.000849869
0.00084908
0.000848358
0.000847632
0.000846968
0.000846301
0.000845701
0.000845101
0.000844559
0.000843999
0.000843481
0.000842915
0.0008424
0.000841812
0.000841297
0.000840703
0.000851541
0.000850672
0.000849857
0.000849074
0.000848337
0.000847628
0.000846959
0.000846316
0.000845707
0.000845123
0.000844568
0.000844035
0.000843527
0.000843035
0.000842567
0.000842107
0.000841671
0.000841242
0.000851538
0.000850673
0.000849852
0.00084907
0.000848328
0.00084762
0.000846946
0.000846304
0.000845691
0.000845106
0.000844548
0.000844014
0.000843505
0.000843016
0.000842551
0.000842102
0.000841675
0.000841263
0.000851539
0.000850677
0.000849858
0.000849077
0.000848335
0.000847627
0.000846953
0.00084631
0.000845696
0.00084511
0.000844551
0.000844015
0.000843504
0.000843014
0.000842547
0.000842098
0.000841669
0.000841259
0.000851537
0.000850674
0.000849851
0.000849069
0.000848324
0.000847615
0.000846938
0.000846293
0.000845677
0.00084509
0.000844528
0.000843991
0.000843478
0.000842987
0.000842517
0.000842067
0.000841637
0.000841225
0.000851534
0.000850676
0.000849849
0.000849072
0.000848323
0.000847618
0.000846938
0.000846296
0.000845677
0.000845092
0.000844528
0.000843993
0.000843478
0.000842988
0.000842519
0.00084207
0.000841639
0.000841225
0.000851523
0.000850691
0.000849841
0.000849089
0.000848319
0.000847635
0.000846939
0.000846312
0.000845683
0.00084511
0.000844535
0.000844011
0.000843487
0.000843007
0.000842542
0.000842086
0.00084165
0.000841179
0.000851484
0.000850741
0.000849803
0.000849147
0.000848285
0.000847685
0.000846912
0.000846338
0.000845659
0.000845114
0.000844472
0.000843993
0.000843371
0.000842963
0.000842454
0.000841938
0.000841405
0.000840238
0.00085142
0.000850844
0.000849705
0.000849313
0.00084813
0.000847797
0.000846621
0.000846254
0.000845151
0.000844668
0.000843511
0.000843127
0.000841807
0.000841539
0.000840601
0.000839722
0.000836845
0.000834465
0.00085152
0.000850748
0.00084979
0.000849265
0.000847636
0.000846668
0.000844525
0.000843208
0.000840708
0.00083872
0.000835979
0.00083347
0.00083021
0.000826921
0.000822863
0.000818075
0.00080958
0.0008008
0.000852044
0.000849788
0.000849275
0.000846724
0.000840988
0.000834936
0.000827064
0.000820276
0.000810458
0.00080269
0.00079192
0.000783351
0.000772299
0.000763009
0.000750798
0.000739039
0.000720797
0.000704492
0.000850093
0.000835096
0.000836256
0.000816118
0.000790111
0.000765977
0.000738363
0.000716208
0.000688532
0.000668099
0.000643773
0.000625112
0.000604915
0.000587613
0.00056964
0.000550692
0.000529751
0.000509384
0.000830325
0.000741668
0.000727797
0.000653149
0.000586988
0.000534018
0.00048761
0.000452684
0.000418464
0.000394365
0.000369062
0.00035176
0.000332592
0.000319211
0.000302452
0.000289432
0.00027081
0.000256816
0.000730783
0.000441797
0.000366681
0.00028951
0.000238249
0.000205065
0.000181531
0.000165
0.000151365
0.000141676
0.000132988
0.000126835
0.000120765
0.00011629
0.000110922
0.000105744
9.91264e-05
9.25987e-05
0.000424228
0.000114414
7.82478e-05
6.52471e-05
5.93024e-05
5.62305e-05
5.47108e-05
5.39242e-05
5.38193e-05
5.40716e-05
5.48656e-05
5.59222e-05
5.7378e-05
5.88489e-05
6.05221e-05
6.06033e-05
6.06707e-05
6.07024e-05
1.11896e-05
1.56515e-05
1.88488e-05
2.07632e-05
2.18058e-05
2.20551e-05
2.21706e-05
2.20038e-05
2.17184e-05
2.13878e-05
2.10491e-05
2.07243e-05
2.04232e-05
2.01526e-05
1.99061e-05
1.96958e-05
1.9504e-05
1.93411e-05
1.33213e-12
1.50991e-10
7.77401e-10
3.09517e-09
1.05415e-08
3.28193e-08
8.65559e-08
1.72481e-07
2.79681e-07
3.90788e-07
4.90064e-07
5.66274e-07
6.1699e-07
6.35058e-07
6.25096e-07
5.99791e-07
5.50577e-07
4.69562e-07
3.99031e-07
3.39432e-07
2.835e-07
2.29446e-07
1.7713e-07
1.28747e-07
8.55504e-08
5.168e-08
2.86859e-08
1.51831e-08
8.09155e-09
4.55212e-09
2.82033e-09
2.0277e-09
2.17451e-09
3.66482e-09
6.39777e-09
3.47079e-08
8.19558e-08
2.06337e-07
3.41957e-07
4.30727e-07
4.14864e-07
3.47852e-07
2.76032e-07
2.06114e-07
1.79823e-07
2.02442e-07
2.58227e-07
4.09297e-07
6.56178e-07
1.54326e-06
4.20072e-06
1.28609e-05
2.71589e-05
4.19494e-05
5.32147e-05
5.71082e-05
5.11524e-05
4.54267e-05
4.21436e-05
4.35156e-05
3.90817e-05
3.39929e-05
3.54158e-05
3.71834e-05
2.90039e-05
3.31271e-05
3.26977e-05
3.36291e-05
3.42222e-05
3.47903e-05
3.54561e-05
3.6004e-05
3.66314e-05
3.71895e-05
3.77862e-05
3.83464e-05
3.89246e-05
3.94806e-05
4.00449e-05
4.05927e-05
4.11449e-05
4.1683e-05
4.22225e-05
4.27497e-05
4.32767e-05
4.37932e-05
4.43074e-05
4.48123e-05
4.5313e-05
4.58055e-05
4.62953e-05
4.6779e-05
4.7259e-05
4.77318e-05
4.81997e-05
4.86603e-05
4.91156e-05
4.95647e-05
5.00095e-05
5.04523e-05
5.08963e-05
5.13491e-05
5.18153e-05
5.22916e-05
5.27711e-05
5.32597e-05
5.37559e-05
5.4262e-05
5.47778e-05
5.53035e-05
5.58407e-05
5.63874e-05
5.69471e-05
5.75159e-05
5.80986e-05
5.86902e-05
5.92967e-05
5.99124e-05
6.05425e-05
6.11818e-05
6.1836e-05
6.25022e-05
6.31852e-05
6.38812e-05
6.45933e-05
6.5319e-05
6.6059e-05
6.68112e-05
6.75686e-05
6.83267e-05
6.90808e-05
7.00821e-05
7.09277e-05
7.18396e-05
7.27507e-05
7.37978e-05
7.49394e-05
7.61529e-05
7.74762e-05
7.83065e-05
7.80852e-05
7.78903e-05
7.76846e-05
7.74448e-05
7.72051e-05
7.69307e-05
7.66656e-05
7.63583e-05
7.60671e-05
7.57265e-05
7.5409e-05
7.50353e-05
7.46915e-05
7.42874e-05
7.39168e-05
7.34888e-05
7.3067e-05
7.26501e-05
7.21789e-05
7.17398e-05
7.12463e-05
7.07785e-05
7.0286e-05
6.97973e-05
6.9303e-05
6.88092e-05
6.83146e-05
6.7822e-05
6.73312e-05
6.68445e-05
6.63623e-05
6.58852e-05
6.54142e-05
6.49481e-05
6.44838e-05
6.40134e-05
6.35252e-05
6.29842e-05
6.23448e-05
6.06548e-05
7.08117e-12
1.16152e-09
1.609e-08
8.68093e-08
3.87521e-07
1.17624e-06
2.72607e-06
4.95441e-06
7.70966e-06
1.07946e-05
1.38795e-05
1.67486e-05
1.91395e-05
2.09114e-05
2.1914e-05
2.21761e-05
2.17032e-05
2.0944e-05
1.85353e-05
1.55693e-05
1.20573e-05
8.92532e-06
6.33772e-06
4.32326e-06
2.77295e-06
1.74268e-06
1.09053e-06
6.91677e-07
4.46918e-07
2.99277e-07
2.20847e-07
1.85502e-07
1.93328e-07
2.75574e-07
3.45468e-07
2.2343e-06
5.28993e-06
1.20593e-05
1.83663e-05
2.21456e-05
2.17243e-05
2.01033e-05
1.57193e-05
1.15398e-05
1.08063e-05
1.26253e-05
1.44683e-05
1.61829e-05
2.14897e-05
3.14055e-05
4.24281e-05
5.40183e-05
6.51607e-05
7.51801e-05
8.44252e-05
9.40157e-05
0.000102882
0.000113087
0.000126986
0.000139196
0.000151207
0.00016239
0.000177252
0.000191868
0.000200606
0.000212831
0.000224002
0.000234843
0.000245131
0.000255383
0.000264972
0.000274428
0.000283479
0.000292364
0.000300999
0.000309497
0.000317839
0.000326084
0.000334231
0.000342308
0.000350328
0.000358299
0.000366237
0.00037414
0.000382026
0.000389887
0.000397737
0.000405564
0.000413373
0.000421144
0.000428891
0.000436586
0.000444244
0.000451831
0.000459343
0.000466737
0.000473992
0.000481049
0.000487859
0.000494338
0.000500397
0.000505925
0.000510792
0.000515321
0.000519708
0.000523922
0.00052796
0.000531826
0.000535515
0.000539031
0.000542373
0.000545544
0.000548545
0.000551382
0.000554057
0.000556576
0.000558945
0.000561173
0.000563266
0.000565233
0.000567078
0.00056881
0.000570438
0.000571967
0.000573407
0.000574761
0.000576041
0.000577245
0.000578385
0.000579447
0.000580406
0.000581178
0.000581859
0.000582352
0.000582712
0.00058253
0.000583278
0.000582917
0.000583895
0.000584193
0.000584578
0.000584692
0.000585207
0.000585379
0.000585075
0.000585096
0.000584365
0.000584125
0.000582963
0.000582422
0.00058082
0.000579931
0.0005779
0.00057661
0.000574265
0.000572325
0.000570319
0.000567432
0.000565199
0.000562057
0.00055939
0.000556138
0.000553084
0.000549802
0.000546473
0.000543068
0.000539597
0.000536073
0.000532501
0.000528893
0.000525258
0.000521603
0.000517936
0.000514225
0.000510434
0.000506496
0.000502229
0.000497333
0.000491117
0.000474345
1.871e-11
3.18802e-09
6.01136e-08
3.50598e-07
1.23656e-06
3.02277e-06
6.43161e-06
1.11814e-05
1.70624e-05
2.37111e-05
3.08221e-05
3.76859e-05
4.3851e-05
4.89685e-05
5.2847e-05
5.53589e-05
5.66001e-05
5.68251e-05
5.52058e-05
5.21971e-05
4.75389e-05
4.13552e-05
3.4158e-05
2.6914e-05
2.04053e-05
1.47258e-05
1.02279e-05
6.93699e-06
4.60516e-06
3.11531e-06
2.21708e-06
1.7752e-06
1.54427e-06
2.05379e-06
3.3072e-06
1.30349e-05
2.84209e-05
4.70425e-05
5.9873e-05
6.44873e-05
6.03797e-05
4.64257e-05
3.5408e-05
3.23408e-05
3.65933e-05
4.39753e-05
5.20138e-05
6.36648e-05
7.64939e-05
8.93061e-05
0.000104207
0.000122182
0.000142097
0.000164802
0.000189885
0.000217407
0.000246488
0.000276787
0.000308256
0.000338666
0.000368166
0.000396139
0.000422922
0.000450706
0.000474497
0.000497734
0.000520132
0.000541677
0.000562303
0.000582396
0.00060168
0.000620566
0.000638922
0.000656955
0.000674642
0.000692089
0.000709306
0.000726351
0.000743235
0.000759994
0.000776638
0.000793186
0.000809643
0.000826017
0.000842311
0.000858523
0.000874649
0.000890678
0.000906598
0.000922387
0.000938029
0.000953502
0.000968782
0.000983829
0.000998607
0.00101306
0.00102715
0.00104081
0.00105399
0.00106664
0.00107874
0.00109028
0.00110129
0.00111193
0.00112221
0.00113211
0.00114162
0.00115073
0.00115945
0.00116778
0.00117571
0.00118326
0.00119042
0.00119721
0.00120364
0.00120971
0.00121546
0.00122089
0.00122603
0.00123089
0.00123549
0.00123984
0.00124397
0.0012479
0.00125164
0.0012552
0.0012586
0.00126184
0.00126491
0.00126782
0.00127053
0.00127304
0.00127539
0.00127752
0.00127946
0.00128116
0.00128297
0.00128398
0.00128562
0.00128675
0.00128766
0.00128838
0.001289
0.00128932
0.0012889
0.00128862
0.00128731
0.00128632
0.00128406
0.00128229
0.00127906
0.00127646
0.00127227
0.00126879
0.00126394
0.00125917
0.0012543
0.00124819
0.00124266
0.001236
0.00122968
0.00122265
0.00121566
0.00120835
0.0012009
0.00119331
0.0011856
0.00117781
0.00116994
0.00116203
0.00115408
0.00114612
0.00113815
0.00113011
0.00112193
0.00111345
0.00110431
0.00109374
0.00108001
0.00104967
7.03891e-11
1.18582e-08
1.87997e-07
8.20946e-07
2.59942e-06
7.13835e-06
1.41592e-05
2.35699e-05
3.4549e-05
4.59869e-05
5.71186e-05
6.74178e-05
7.62258e-05
8.3032e-05
8.81131e-05
9.13814e-05
9.26835e-05
9.24336e-05
9.07464e-05
8.75466e-05
8.29237e-05
7.7103e-05
6.96177e-05
6.0559e-05
5.06768e-05
4.06952e-05
3.15838e-05
2.39511e-05
1.81093e-05
1.35092e-05
1.06191e-05
8.16612e-06
7.9428e-06
1.07488e-05
2.15008e-05
4.39323e-05
6.42822e-05
7.79756e-05
8.08139e-05
7.31585e-05
6.64898e-05
6.41846e-05
6.60892e-05
7.19646e-05
8.14603e-05
9.46148e-05
0.000107663
0.000122401
0.000146185
0.000168778
0.000199252
0.000232596
0.000270164
0.000310747
0.000353756
0.000398174
0.000442619
0.000487131
0.000530648
0.000572511
0.00061252
0.00065145
0.000688158
0.000724474
0.000758216
0.000790952
0.000822552
0.00085307
0.000882652
0.000911477
0.00093955
0.000967068
0.000994046
0.0010206
0.00104676
0.00107261
0.00109816
0.00112347
0.00114855
0.00117344
0.00119814
0.00122267
0.00124703
0.00127123
0.00129526
0.00131912
0.0013428
0.00136627
0.00138953
0.00141253
0.00143526
0.00145768
0.00147975
0.00150144
0.0015227
0.00154349
0.00156375
0.00158347
0.0016026
0.00162114
0.00163909
0.00165646
0.00167327
0.00168954
0.00170528
0.00172045
0.00173505
0.00174906
0.00176249
0.00177534
0.0017876
0.00179929
0.00181041
0.00182097
0.001831
0.00184051
0.00184953
0.00185809
0.00186619
0.00187388
0.00188118
0.00188811
0.0018947
0.00190098
0.00190696
0.00191267
0.00191813
0.00192332
0.00192827
0.00193296
0.00193739
0.00194158
0.00194547
0.00194912
0.0019525
0.0019556
0.0019585
0.0019607
0.00196285
0.00196453
0.00196601
0.00196706
0.0019677
0.00196792
0.00196736
0.00196655
0.00196476
0.00196282
0.00195975
0.00195659
0.0019522
0.00194779
0.00194209
0.00193642
0.00192963
0.00192245
0.0019149
0.00190633
0.00189776
0.00188829
0.00187872
0.00186854
0.00185817
0.00184745
0.00183652
0.0018254
0.00181412
0.00180272
0.00179124
0.00177969
0.00176812
0.00175653
0.00174495
0.00173331
0.0017215
0.00170932
0.00169633
0.00168142
0.00166233
0.00162649
2.34718e-10
3.46684e-08
4.18835e-07
2.04176e-06
7.00569e-06
1.67649e-05
3.10025e-05
4.77342e-05
6.51557e-05
8.16026e-05
9.55641e-05
0.000106192
0.000113975
0.000119592
0.000122999
0.000124676
0.000124759
0.000123386
0.000120713
0.00011679
0.000111558
0.00010536
9.8174e-05
8.93386e-05
7.91706e-05
6.79035e-05
5.63168e-05
4.56654e-05
3.6855e-05
2.98356e-05
2.3904e-05
2.18081e-05
2.37144e-05
3.68727e-05
6.22304e-05
8.08941e-05
8.97423e-05
9.21541e-05
9.15474e-05
9.13079e-05
9.39033e-05
0.000100176
0.000110812
0.0001243
0.00013582
0.000153371
0.000179868
0.000208358
0.000245545
0.000284989
0.000331665
0.000380129
0.00043209
0.000485443
0.00053974
0.000593953
0.000647331
0.000699756
0.000750527
0.000799796
0.000847066
0.000893657
0.000938021
0.000981181
0.00102267
0.00106297
0.00110213
0.00114022
0.00117739
0.00121375
0.00124937
0.00128437
0.00131881
0.00135276
0.00138626
0.00141936
0.00145211
0.00148453
0.00151664
0.00154847
0.00158002
0.0016113
0.00164231
0.00167306
0.00170354
0.00173373
0.00176362
0.00179318
0.0018224
0.00185125
0.00187969
0.00190768
0.0019352
0.00196221
0.00198867
0.00201454
0.0020398
0.00206442
0.00208839
0.00211171
0.00213438
0.00215641
0.00217778
0.00219848
0.0022185
0.00223783
0.00225644
0.00227434
0.00229151
0.00230796
0.0023237
0.00233872
0.00235304
0.00236668
0.00237964
0.00239196
0.00240367
0.00241478
0.00242534
0.00243535
0.00244487
0.0024539
0.0024625
0.00247067
0.00247846
0.00248588
0.00249294
0.00249966
0.00250605
0.00251211
0.00251783
0.00252328
0.00252827
0.00253299
0.00253736
0.00254137
0.00254494
0.0025478
0.00255031
0.0025525
0.00255423
0.00255542
0.00255603
0.00255607
0.00255533
0.00255406
0.0025519
0.00254921
0.00254555
0.00254137
0.00253617
0.00253047
0.00252375
0.00251654
0.00250842
0.00249964
0.00249028
0.00248006
0.00246943
0.00245807
0.00244632
0.00243402
0.00242136
0.00240834
0.00239503
0.00238148
0.00236775
0.00235387
0.00233987
0.00232581
0.00231171
0.0022976
0.00228347
0.00226929
0.00225496
0.00224028
0.00222481
0.00220737
0.00218548
0.00214954
7.37873e-10
8.58378e-08
1.06095e-06
5.43905e-06
1.75654e-05
3.68053e-05
6.00628e-05
8.38635e-05
0.000104783
0.000121494
0.000133898
0.00014307
0.000148686
0.000151646
0.000152628
0.000152065
0.000150216
0.000147245
0.000143298
0.000138343
0.00013238
0.000125723
0.000118076
0.000109145
9.82194e-05
8.26026e-05
6.76983e-05
5.37082e-05
4.1367e-05
3.41212e-05
3.31469e-05
4.03126e-05
5.81928e-05
8.04669e-05
9.7337e-05
0.000107404
0.000112122
0.000114705
0.000118692
0.000126584
0.000139638
0.000149447
0.000161288
0.000180986
0.000207491
0.0002387
0.000278119
0.00032185
0.000372631
0.000425756
0.000483154
0.00054155
0.000601611
0.000661986
0.000722323
0.000781938
0.000840496
0.000897395
0.000953047
0.00100795
0.00106113
0.00111275
0.00116274
0.00121148
0.00125889
0.00130515
0.00135033
0.00139453
0.00143785
0.00148037
0.00152218
0.00156334
0.00160391
0.00164395
0.00168349
0.00172257
0.00176121
0.00179943
0.00183726
0.00187469
0.00191174
0.0019484
0.00198468
0.00202057
0.00205606
0.00209113
0.00212578
0.00215998
0.0021937
0.00222693
0.00225962
0.00229176
0.00232331
0.00235425
0.00238454
0.00241416
0.00244309
0.00247131
0.00249882
0.0025256
0.00255167
0.00257701
0.0026016
0.00262542
0.00264848
0.00267074
0.0026922
0.00271286
0.00273271
0.00275175
0.00276999
0.00278744
0.00280409
0.00281997
0.0028351
0.00284949
0.00286318
0.00287619
0.00288854
0.00290026
0.00291138
0.00292193
0.00293194
0.00294145
0.00295047
0.00295902
0.00296714
0.00297483
0.00298211
0.00298899
0.00299552
0.00300159
0.00300726
0.00301255
0.00301742
0.00302185
0.00302565
0.0030288
0.00303152
0.00303382
0.00303558
0.00303674
0.00303725
0.00303711
0.00303621
0.00303463
0.00303224
0.00302914
0.00302518
0.00302049
0.0030149
0.00300857
0.00300135
0.00299342
0.00298465
0.00297512
0.00296489
0.00295387
0.00294225
0.00292995
0.00291712
0.00290374
0.00288992
0.00287569
0.00286113
0.0028463
0.00283123
0.00281598
0.00280058
0.0027851
0.00276956
0.002754
0.00273843
0.00272282
0.00270712
0.00269113
0.00267447
0.00265615
0.00263369
0.00260008
2.29548e-09
2.16916e-07
2.7682e-06
1.45397e-05
3.77906e-05
6.70226e-05
9.43099e-05
0.000117074
0.00013507
0.000149069
0.000159482
0.000165968
0.000169477
0.000170744
0.000170314
0.000168568
0.000165752
0.000161994
0.000157262
0.000151508
0.000144873
0.000137311
0.000128434
0.000111083
9.47081e-05
8.0496e-05
6.80788e-05
5.80005e-05
5.27315e-05
5.63616e-05
7.05949e-05
9.11325e-05
0.000109898
0.000123202
0.000132264
0.000138209
0.00014371
0.000152288
0.00016643
0.000173306
0.000184463
0.000203621
0.000229259
0.000261069
0.000299879
0.000344658
0.000396054
0.00045144
0.000510949
0.000572082
0.00063528
0.000699009
0.000763295
0.000827368
0.000890919
0.000953189
0.00101459
0.00107537
0.00113491
0.00119304
0.0012497
0.00130507
0.00135915
0.00141207
0.00146386
0.00151462
0.00156441
0.00161331
0.00166139
0.00170872
0.00175537
0.00180137
0.00184677
0.0018916
0.00193588
0.00197963
0.00202287
0.00206559
0.00210781
0.00214952
0.00219072
0.00223141
0.00227158
0.00231123
0.00235034
0.00238892
0.00242693
0.00246437
0.00250122
0.00253746
0.00257307
0.00260802
0.00264231
0.0026759
0.00270877
0.00274091
0.0027723
0.00280292
0.00283278
0.00286184
0.0028901
0.00291753
0.00294415
0.00296996
0.00299493
0.00301907
0.00304236
0.00306481
0.0030864
0.00310715
0.00312704
0.0031461
0.00316434
0.00318177
0.00319839
0.00321421
0.00322927
0.00324357
0.00325713
0.00326999
0.00328217
0.0032937
0.0033046
0.00331491
0.00332465
0.00333384
0.00334251
0.00335068
0.00335836
0.00336557
0.0033724
0.0033787
0.00338462
0.00339005
0.00339503
0.00339946
0.0034032
0.00340634
0.00340907
0.00341128
0.00341292
0.00341394
0.00341431
0.00341401
0.00341299
0.00341126
0.00340875
0.00340551
0.00340153
0.0033968
0.00339123
0.00338488
0.00337769
0.00336974
0.00336097
0.00335143
0.00334114
0.0033301
0.00331838
0.00330598
0.003293
0.00327945
0.00326541
0.00325093
0.00323607
0.00322089
0.00320543
0.00318975
0.00317388
0.00315789
0.00314181
0.00312569
0.00310955
0.0030934
0.00307717
0.00306075
0.00304384
0.00302564
0.00300415
0.00297391
6.67649e-09
5.60944e-07
7.27672e-06
3.02572e-05
6.39923e-05
9.82983e-05
0.000127543
0.00015004
0.000165837
0.000176011
0.000181431
0.000184032
0.000184617
0.000183584
0.000181317
0.000178073
0.000173934
0.000168835
0.000162856
0.000156107
0.00014862
0.000139751
0.00012038
0.000103312
8.89715e-05
7.76462e-05
7.17074e-05
7.44167e-05
8.26381e-05
9.78148e-05
0.000120429
0.000142262
0.000157855
0.000165692
0.000172684
0.000181499
0.00019004
0.000195364
0.000205475
0.000222859
0.000246366
0.000276754
0.000313765
0.000357125
0.000406703
0.000461472
0.000520737
0.000582729
0.000646876
0.00071201
0.000778025
0.000844217
0.000910399
0.000976048
0.00104086
0.00110525
0.00116898
0.0012315
0.00129281
0.00135296
0.00141191
0.00146975
0.0015265
0.00158224
0.00163701
0.00169088
0.00174391
0.00179614
0.00184764
0.00189845
0.00194861
0.00199814
0.00204708
0.00209542
0.00214318
0.00219036
0.00223694
0.00228292
0.00232829
0.00237303
0.00241713
0.0024606
0.00250342
0.00254559
0.00258709
0.00262792
0.00266809
0.00270757
0.00274635
0.00278442
0.00282178
0.00285842
0.00289433
0.00292948
0.00296388
0.00299751
0.00303035
0.0030624
0.00309366
0.00312409
0.00315367
0.00318242
0.00321034
0.00323744
0.00326371
0.00328913
0.0033137
0.00333742
0.00336027
0.00338225
0.00340337
0.00342362
0.00344301
0.00346154
0.00347921
0.00349605
0.00351205
0.00352724
0.00354164
0.00355525
0.00356812
0.00358026
0.00359169
0.00360245
0.00361257
0.00362206
0.00363097
0.0036393
0.00364708
0.00365434
0.00366119
0.00366751
0.00367341
0.00367879
0.00368368
0.00368795
0.0036916
0.00369469
0.00369733
0.00369946
0.00370103
0.00370202
0.0037024
0.00370215
0.00370124
0.00369964
0.00369735
0.00369434
0.00369062
0.00368616
0.0036809
0.00367488
0.00366806
0.00366048
0.00365211
0.00364297
0.00363307
0.00362243
0.00361109
0.00359908
0.00358644
0.00357321
0.00355946
0.00354524
0.00353059
0.00351557
0.00350023
0.00348462
0.00346877
0.00345275
0.00343661
0.0034204
0.00340415
0.00338788
0.00337156
0.00335513
0.00333836
0.00332072
0.00330068
0.00327426
1.68456e-08
1.35883e-06
1.58043e-05
5.02532e-05
9.01627e-05
0.000125212
0.00015279
0.000173022
0.00018609
0.000193449
0.000196495
0.000196376
0.000194088
0.000190427
0.000185891
0.000180713
0.000174937
0.000168556
0.000161561
0.000153833
0.000145522
0.000130086
0.000115843
0.000106041
0.000101667
0.000100121
9.93412e-05
0.000109036
0.000125813
0.000145314
0.000164778
0.000181437
0.000194173
0.000202309
0.000207823
0.000214425
0.000223953
0.00023935
0.000260068
0.000287888
0.000322055
0.000362607
0.000409049
0.000461001
0.000517844
0.000578488
0.000641872
0.000706875
0.000772984
0.000839671
0.000906689
0.00097368
0.00104007
0.00110612
0.00117207
0.00123704
0.00130108
0.00136413
0.00142612
0.0014871
0.00154706
0.00160607
0.00166416
0.00172138
0.00177779
0.00183344
0.00188837
0.00194263
0.00199625
0.00204925
0.00210166
0.0021535
0.00220476
0.00225544
0.00230551
0.00235496
0.00240376
0.0024519
0.00249932
0.00254601
0.00259195
0.00263714
0.00268155
0.00272519
0.00276806
0.00281014
0.00285144
0.00289198
0.00293178
0.00297085
0.00300913
0.00304662
0.00308331
0.00311921
0.0031543
0.00318858
0.00322205
0.00325471
0.00328656
0.0033176
0.00334783
0.00337727
0.00340589
0.0034337
0.00346068
0.00348684
0.00351215
0.00353662
0.00356024
0.00358299
0.00360489
0.00362591
0.00364606
0.00366534
0.00368374
0.00370128
0.00371795
0.00373376
0.00374873
0.00376286
0.00377619
0.00378871
0.00380047
0.00381148
0.00382177
0.00383137
0.00384032
0.00384863
0.00385634
0.00386348
0.00387018
0.0038764
0.00388209
0.00388726
0.00389194
0.00389598
0.00389948
0.00390244
0.00390495
0.00390699
0.00390853
0.00390954
0.00391002
0.00390993
0.00390927
0.003908
0.00390611
0.00390358
0.0039004
0.00389655
0.00389199
0.00388673
0.00388074
0.00387402
0.00386657
0.00385838
0.00384945
0.00383981
0.00382947
0.00381845
0.00380679
0.00379454
0.00378172
0.0037684
0.00375461
0.0037404
0.00372581
0.00371088
0.00369567
0.00368023
0.00366461
0.00364887
0.00363305
0.00361718
0.00360127
0.00358529
0.00356909
0.00355221
0.00353341
0.0035102
3.66504e-08
3.06505e-06
2.81027e-05
7.28065e-05
0.00011783
0.00015394
0.000179242
0.000195167
0.000204022
0.000207052
0.000206064
0.000202423
0.000197112
0.000190793
0.000183896
0.000176452
0.000168658
0.000160468
0.000151705
0.000142933
0.000133897
0.000124904
0.000117121
0.000112717
0.000113944
0.000121647
0.000134677
0.000150305
0.000167445
0.000184126
0.000198914
0.000210396
0.000219036
0.00022804
0.000238739
0.000252701
0.000271266
0.000296055
0.000326826
0.000363876
0.000406555
0.000454606
0.000507519
0.000564734
0.000625449
0.000688683
0.00075358
0.000819464
0.000885931
0.000952647
0.00101923
0.00108537
0.0011516
0.00121734
0.00128235
0.00134651
0.00140978
0.00147213
0.00153354
0.00159406
0.00165371
0.00171253
0.00177059
0.00182796
0.00188468
0.0019408
0.00199637
0.00205142
0.00210597
0.00216002
0.00221352
0.00226656
0.00231909
0.00237106
0.00242244
0.00247319
0.00252328
0.0025727
0.00262151
0.00266956
0.00271675
0.00276305
0.00280846
0.00285296
0.00289655
0.00293924
0.00298102
0.0030219
0.00306187
0.00310093
0.00313915
0.00317657
0.0032132
0.00324904
0.00328411
0.00331839
0.0033519
0.00338465
0.00341663
0.00344785
0.00347831
0.00350801
0.00353692
0.00356505
0.0035924
0.00361895
0.0036447
0.00366964
0.00369376
0.00371705
0.00373949
0.00376109
0.00378183
0.0038017
0.0038207
0.00383882
0.00385605
0.00387241
0.00388789
0.00390249
0.00391622
0.00392911
0.00394115
0.00395239
0.00396283
0.00397252
0.00398149
0.00398977
0.00399739
0.0040044
0.00401092
0.00401697
0.00402245
0.00402741
0.00403184
0.0040357
0.00403903
0.00404189
0.00404431
0.0040463
0.00404786
0.00404898
0.00404964
0.00404983
0.00404953
0.00404873
0.00404741
0.00404554
0.00404312
0.00404011
0.00403649
0.00403224
0.00402734
0.00402178
0.00401555
0.00400862
0.004001
0.00399268
0.00398369
0.00397402
0.00396371
0.00395279
0.00394128
0.00392923
0.00391667
0.00390364
0.00389016
0.00387629
0.00386206
0.00384754
0.00383277
0.00381782
0.00380274
0.00378757
0.00377234
0.00375704
0.00374161
0.00372572
0.00370831
0.00368848
6.84618e-08
6.15462e-06
4.10939e-05
9.16467e-05
0.00013879
0.000174972
0.000198867
0.000211748
0.000216627
0.000215955
0.000211589
0.000204882
0.000196779
0.000187765
0.000178307
0.000168924
0.000159346
0.000150606
0.000143008
0.000136848
0.000132239
0.000130118
0.000131511
0.000136834
0.000146017
0.00015827
0.000172463
0.000187312
0.000201849
0.000214709
0.000225527
0.000236405
0.000248881
0.000263073
0.00028031
0.000302407
0.000329919
0.000363172
0.000401783
0.00044554
0.000493941
0.000546623
0.000603087
0.000662727
0.000724797
0.000788513
0.000853224
0.000918455
0.000983905
0.00104899
0.00111399
0.00117885
0.00124315
0.00130673
0.0013695
0.0014314
0.00149243
0.0015526
0.00161194
0.00167051
0.00172837
0.00178553
0.00184211
0.00189822
0.00195393
0.00200928
0.00206431
0.00211905
0.00217352
0.00222777
0.00228192
0.00233579
0.0023892
0.00244209
0.00249437
0.00254598
0.00259687
0.00264699
0.00269622
0.00274453
0.00279189
0.00283829
0.00288372
0.00292818
0.00297167
0.00301417
0.00305572
0.00309632
0.00313601
0.00317485
0.00321285
0.00325004
0.00328644
0.00332208
0.00335695
0.00339108
0.00342446
0.00345712
0.00348904
0.00352024
0.00355072
0.00358047
0.00360949
0.00363778
0.00366533
0.00369215
0.00371821
0.00374352
0.00376806
0.00379181
0.00381477
0.00383691
0.00385822
0.00387869
0.00389829
0.00391702
0.00393488
0.00395185
0.00396792
0.00398309
0.00399735
0.00401071
0.00402318
0.00403477
0.00404551
0.00405542
0.00406454
0.00407291
0.00408057
0.00408759
0.00409405
0.0041
0.00410537
0.0041102
0.00411449
0.00411826
0.00412151
0.00412432
0.00412673
0.00412876
0.00413043
0.00413173
0.00413267
0.00413324
0.00413342
0.0041332
0.00413255
0.00413148
0.00412994
0.00412792
0.00412539
0.00412231
0.00411868
0.00411446
0.00410962
0.00410416
0.00409804
0.00409127
0.00408384
0.00407575
0.00406702
0.00405767
0.00404771
0.00403718
0.0040261
0.00401449
0.00400237
0.00398979
0.00397679
0.00396342
0.00394973
0.00393579
0.00392165
0.00390737
0.00389298
0.00387851
0.00386393
0.00384904
0.00383288
0.00381599
1.08229e-07
1.05132e-05
5.69257e-05
0.000114926
0.000163061
0.000196437
0.000216251
0.000225361
0.000226795
0.00022305
0.000216024
0.000207032
0.000196874
0.000186918
0.000176931
0.000167908
0.000160193
0.000154025
0.000150368
0.000148925
0.000149991
0.000153831
0.000160464
0.000169601
0.000180723
0.000193173
0.000206223
0.000218807
0.000230292
0.000241979
0.000255518
0.000270747
0.000287729
0.000308041
0.000332766
0.000362431