/*--------------------------------*- C++ -*----------------------------------*\
  =========                 |
  \\      /  F ield         | OpenFOAM: The Open Source CFD Toolbox
   \\    /   O peration     | Website:  https://openfoam.org
    \\  /    A nd           | Version:  13
     \\/     M anipulation  |
\*---------------------------------------------------------------------------*/
FoamFile
{
    format      ascii;
    class       volScalarField;
    location    "1300";
    object      omega;
}
// * * * * * * * * * * * * * * * * * * * * * * * * * * * * * * * * * * * * * //

dimensions      [0 0 -1 0 0 0 0];

internalField   nonuniform List<scalar> 
12225
(
31477.7
31477.7
47054.4
40718.5
31477.7
49228.6
42899.6
45846.6
42109.9
31477.7
31477.7
31477.7
42219.5
43077.4
41825.7
39601.7
42551.3
38253.8
9291.28
18581
16406.2
29518.8
20706
19458.5
18119
19085.7
19078
19145.7
18298.7
21530.7
19790.5
20264
20860.5
19549.9
20343.3
19688.3
3197.29
0.274447
5857.83
2196.49
8562.53
9905.38
9380.57
9125.4
8595.82
8496.08
8724.02
8739.78
8856.44
8865.24
11580.3
9665.01
11015.1
11563.5
0.420223
3635.78
1959.34
2627.13
4871.08
5212.55
5521.66
7829.89
6852.09
6573.58
6320.23
6144.85
6034.17
7034.3
6191.37
6098.96
6571.97
6406.96
2832.42
1831.64
2046.84
5521.84
3291.57
3654.12
3955.09
5588.82
4740.54
6359.14
5193.26
6106
6258.83
5926.32
5369.28
4672.24
4051.92
3553.67
4788.57
3604.12
3130.73
4075.22
3099.66
4024.9
3520.7
4095.59
4315.97
4322.35
4036.11
3842.4
3774.12
3448.42
3123.16
2770.15
2505.64
2323.65
2177.09
1492.03
1307.02
1383.51
1476.73
1805.53
1727.75
1758
1811.86
1873.47
1886.56
1871.22
1799.09
1719.66
1755.72
1698.47
1523.22
1365.88
714.734
802.934
794.847
777.241
814.28
855.544
948.487
973.555
973.579
1012.67
1013.27
972.765
889.163
949.04
905.323
876.825
906.018
884.651
479.102
509.897
528.448
524.441
544.453
564.962
611.023
637.192
645.082
653.898
631.083
656.072
636.6
628.381
627.58
628.403
634.014
647.744
443.428
450.805
453.441
452.914
459.113
468.415
483.99
499.142
503.583
508.76
500.091
512.774
504.178
502.221
507.738
513.89
524.724
524.486
439.219
439.638
435.825
436.307
436.395
438.737
441.954
446.558
447.247
452.054
451.567
452.876
451.095
449.69
451.734
454.307
460.051
461.122
438.489
437.587
434.515
432.981
430.955
430.459
430.515
430.67
429.574
430.838
430.648
429.15
429.667
428.954
429.178
430.023
432.088
432.519
438.869
436.934
434.592
432.604
430.747
429.215
427.869
426.615
425.282
423.947
422.831
421.653
420.879
420.082
419.087
418.863
418.682
418.621
438.977
436.808
434.651
432.643
430.736
428.978
427.307
425.749
424.215
422.756
421.344
420.038
418.82
417.761
416.711
415.902
415.029
414.393
438.996
436.781
434.658
432.655
430.743
428.942
427.221
425.596
424.036
422.557
421.135
419.792
418.506
417.305
416.15
415.087
414.051
413.105
439
436.774
434.657
432.65
430.741
428.929
427.203
425.564
424.002
422.515
421.096
419.746
418.457
417.231
416.059
414.947
413.88
412.87
439
436.772
434.655
432.646
430.735
428.92
427.193
425.55
423.986
422.496
421.076
419.723
418.432
417.202
416.027
414.907
413.836
412.816
438.999
436.769
434.65
432.638
430.726
428.908
427.179
425.534
423.967
422.475
421.054
419.698
418.406
417.173
415.997
414.875
413.803
412.779
439
436.77
434.653
432.641
430.73
428.912
427.183
425.538
423.971
422.479
421.056
419.701
418.408
417.174
415.998
414.874
413.802
412.777
439.002
436.77
434.656
432.643
430.735
428.916
427.19
425.544
423.98
422.486
421.066
419.709
418.418
417.184
416.008
414.884
413.813
412.789
439.008
436.766
434.664
432.641
430.745
428.919
427.202
425.552
423.994
422.498
421.084
419.725
418.439
417.204
416.026
414.907
413.833
412.831
439.028
436.745
434.688
432.624
430.774
428.913
427.236
425.565
424.035
422.53
421.152
419.777
418.543
417.275
416.116
415.013
413.955
413.241
439.06
436.701
434.746
432.561
430.87
428.889
427.413
425.654
424.335
422.81
421.69
420.277
419.391
418.043
417.06
416.045
415.986
415.632
439.01
436.757
434.723
432.621
431.159
429.527
428.538
427.286
426.662
425.903
425.573
425.224
425.298
425.4
425.845
426.513
428.905
431.243
438.73
437.261
435.064
434.024
434.714
435.761
437.795
439.484
442.779
445.185
449.314
452.397
456.992
460.567
465.718
470.243
478.318
484.812
439.655
445.047
442.187
450.8
463.4
475.829
491.282
504.238
521.842
535.276
552.7
566.441
582.409
596.17
610.411
625.334
640.757
655.355
449.863
501.998
510.013
566.295
627.77
687.34
749.205
803.099
863.018
910.06
965.499
1006.06
1056.49
1091.77
1138.9
1171.73
1220.82
1250.28
511.466
852.791
1033.33
1313.66
1595.92
1852.07
2085.09
2282.66
2464.58
2611.53
2754.91
2864.74
2985.04
3074.84
3191.55
3286.41
3420.45
3526.57
917.756
3646.39
5664.9
7131.37
8182.43
8881.44
9347.76
9663.34
9847.24
9956.99
9985.3
9980.32
9947.43
9908.92
9882.95
9845.37
9850.07
9854.72
18117.5
22751
25106.9
26269
26752.2
26750.7
26622
26396.4
26073.7
25741.6
25417.5
25113.1
24832.5
24578.5
24346.7
24142.6
23954.4
23788.9
11463.2
2514.24
2516.41
2518.61
2520.83
2523.07
2525.32
2527.6
2529.9
2532.22
2534.57
2536.93
2539.31
2541.72
2544.15
2546.6
2549.08
2551.57
2554.09
2556.64
2559.2
2561.79
2564.41
2567.05
2569.71
2572.4
2575.12
2577.86
2580.62
2583.41
2586.23
2589.08
2591.95
2594.85
2597.77
2600.73
2603.71
2606.72
2609.76
2612.82
2615.92
2619.05
2622.2
2625.39
2628.61
2631.86
2635.14
2638.45
2641.79
2645.17
2648.58
2652.02
2655.5
2659.01
2662.55
2666.13
2669.74
2673.39
2677.08
2680.8
2684.56
3302.03
3323.48
2696.06
3219.01
3358.63
3446.99
3526.19
3612.24
3683.83
3762.74
3832.51
3905.41
3973.41
4042.35
4108.43
4174.62
4238.85
4302.84
4365.25
4427.27
4487.9
4547.99
4606.78
4664.89
4721.76
4777.78
4832.57
4886.32
4938.74
4990
5039.94
5088.62
5135.84
5181.6
5225.76
5268.26
5309.08
5348.15
5385.65
5421.67
5456.75
5491.2
5524.4
5556.47
5587.48
5617.41
5646.29
5674.19
5701.03
5726.99
5751.92
5776.06
5799.18
5821.59
5843.03
5863.84
5883.75
5903.06
5921.5
5939.31
5956.31
5972.67
5988.28
6003.16
6017.27
6030.45
6042.68
6053.33
6061.96
6067.48
6077.68
6086.88
6095.49
6103.12
6110.46
6117.81
6128
6129.14
6132.25
6133.67
6133.65
6131.69
6128.82
6124.12
6118.85
6111.58
6103.98
6094.17
6084.3
6072.08
6060.08
6045.66
6031.74
6015.54
5999.9
5982.33
5963.94
5945.51
5925.03
5904.91
5883.81
5862.82
5841.73
5820.75
5799.93
5779.43
5759.29
5739.63
5720.49
5702.02
5684.15
5667.03
5650.39
5633.95
5616.95
5598.47
5575.6
5544.05
5420.46
11463.2
1993.88
979.756
785.139
664.553
608.678
613.073
608.496
593.344
570.892
548.066
524.912
505.045
489.166
479.028
472.098
473.446
474.861
507.356
555.534
637.398
735.98
842.184
947.944
1040.76
1114.24
1152.9
1149
1110.27
1041.17
929.692
798.112
669.777
584.342
513.574
464.997
446.62
448.109
459.823
482.108
512.875
533.226
605.73
704.345
795.107
900.07
1141.88
1479.04
1748.78
1910.82
2004.86
2044.76
2049.4
2016.16
1969.45
1913.35
1874.38
1825.12
1766.99
1721.53
1692.34
1684.1
1650.16
1620.04
1636.35
1636.32
1636.61
1638.99
1644.6
1648.4
1655.99
1662.9
1671.7
1680.45
1690.08
1699.75
1709.81
1719.82
1729.93
1739.91
1749.81
1759.49
1768.96
1778.16
1787.06
1795.62
1803.83
1811.65
1819.05
1826.11
1832.72
1839.02
1844.87
1850.38
1855.49
1860.33
1864.92
1869.41
1873.94
1878.76
1884.14
1890.42
1898.03
1905.99
1913.69
1921.23
1928.63
1935.87
1942.97
1949.92
1956.72
1963.39
1969.92
1976.3
1982.54
1988.64
1994.59
2000.39
2006.02
2011.46
2016.72
2021.8
2026.69
2031.38
2035.84
2040.06
2044.02
2047.68
2051.03
2054.07
2056.95
2060.09
2062.69
2065.3
2067.47
2069.64
2071.51
2073.5
2073.94
2074.03
2073.72
2073.08
2072.02
2069.86
2068.71
2065.56
2064.11
2060.12
2058.39
2053.66
2051.64
2046.33
2044.03
2038.39
2035.48
2030.45
2024.81
2021.41
2015.03
2010.99
2004.76
2000.04
1994.23
1988.86
1983.37
1977.96
1972.63
1967.41
1962.33
1957.39
1952.64
1948.07
1943.7
1939.59
1935.81
1932.42
1929.63
1927.91
1926.47
1934.68
11463.2
2004.85
807.559
628.048
659.029
655.676
624.264
568.355
509.686
455.823
407.894
369.496
339.169
315.359
297.095
283.16
273.579
266.454
264.926
267.881
277.895
297.397
328.908
372.082
424.704
483.955
541.883
589.408
616.726
614.743
600.684
558.643
503.781
437.094
386.766
360.46
361.912
371.608
389.763
420.217
477.406
570.872
710.468
895.754
1082.39
1232.31
1360.16
1472
1531.13
1539.48
1514.65
1465.16
1408.73
1349.08
1295.19
1246.34
1209.04
1174.08
1145.64
1125.92
1111.91
1103.21
1098.11
1089.8
1090.44
1091.39
1092.95
1095.23
1098.56
1102.05
1106.43
1110.9
1115.81
1120.8
1125.98
1131.17
1136.41
1141.6
1146.75
1151.81
1156.78
1161.63
1166.35
1170.93
1175.36
1179.65
1183.78
1187.76
1191.59
1195.29
1198.87
1202.35
1205.73
1209.05
1212.31
1215.58
1218.88
1222.27
1225.79
1229.47
1233.35
1237.41
1241.6
1245.72
1249.77
1253.74
1257.64
1261.47
1265.22
1268.9
1272.49
1276.02
1279.45
1282.8
1286.06
1289.22
1292.28
1295.23
1298.06
1300.76
1303.33
1305.78
1308.09
1310.26
1312.27
1314.13
1315.82
1317.35
1318.71
1319.91
1321
1321.95
1322.71
1323.31
1323.72
1323.96
1324.02
1323.96
1323.4
1322.66
1321.74
1320.62
1319.28
1317.56
1316.06
1313.89
1312.18
1309.61
1307.7
1304.78
1302.71
1299.49
1297.27
1293.86
1291.24
1288.08
1284.55
1281.76
1278.01
1274.98
1271.31
1268.04
1264.51
1261.1
1257.68
1254.31
1250.99
1247.73
1244.54
1241.44
1238.45
1235.57
1232.82
1230.26
1227.99
1226.11
1224.84
1224.83
1226.38
1236.85
11463.2
2048.26
1009.25
946.876
863.838
737.51
622.851
519.963
440.477
381.676
336.774
301.303
274.008
253.147
237.267
225.309
216.504
210.194
206.147
204.644
205.725
209.259
217.285
231.395
252.206
280.263
313.673
348.512
378.983
402.166
407.7
402.669
385.743
368.86
384.626
436.393
488.152
529.045
574.319
638.085
737.029
872.615
1006.74
1098.47
1165.96
1226
1258.57
1260.61
1200.81
1172.93
1119.22
1073.39
1029.54
992.054
960.513
934.739
915.355
899.546
888.194
880.609
876.064
872.859
872.071
871.09
872.498
874.29
876.634
879.459
882.69
886.154
889.899
893.759
897.756
901.804
905.896
909.989
914.069
918.111
922.106
926.039
929.903
933.691
937.4
941.028
944.575
948.042
951.432
954.751
958.002
961.2
964.349
967.469
970.566
973.654
976.744
979.856
983
986.188
989.423
992.7
996.003
999.312
1002.59
1005.82
1008.98
1012.08
1015.11
1018.08
1020.98
1023.8
1026.56
1029.23
1031.82
1034.33
1036.74
1039.06
1041.28
1043.39
1045.39
1047.27
1049.03
1050.68
1052.21
1053.61
1054.87
1056.01
1057.01
1057.87
1058.6
1059.19
1059.66
1059.99
1060.19
1060.23
1060.12
1059.86
1059.43
1058.87
1058.04
1057.08
1055.97
1054.71
1053.3
1051.67
1050.04
1048.11
1046.25
1044.04
1041.98
1039.53
1037.29
1034.64
1032.22
1029.41
1026.77
1023.97
1021
1018.21
1015.15
1012.25
1009.17
1006.19
1003.14
1000.13
997.138
994.17
991.24
988.356
985.528
982.766
980.083
977.498
975.029
972.724
970.652
968.916
967.692
967.511
968.761
975.364
11463.2
2320.23
1429.83
1132.82
896.651
690.697
531.332
426.392
354.692
304.495
269.545
245.265
227.472
213.614
202.492
193.621
186.741
181.667
178.237
176.453
176.504
178.015
181.21
187.708
197.958
213.042
233.233
256.548
279.878
300.738
313.824
326.847
370.39
437.942
513.809
569.791
624.473
689.23
764.708
841.03
911.752
971.462
1023.16
1062.06
1076.67
1065.09
1021.29
993.015
949.27
916.981
879.5
850.918
825.197
804.621
787.95
775.074
765.668
758.819
754.572
752.107
751.429
751.103
752.243
753.871
756.289
759.076
762.201
765.61
769.226
772.993
776.884
780.844
784.856
788.89
792.928
796.952
800.95
804.911
808.827
812.693
816.504
820.259
823.958
827.601
831.191
834.731
838.225
841.676
845.093
848.472
851.836
855.181
858.52
861.853
865.188
868.526
871.872
875.219
878.562
881.889
885.183
888.432
891.625
894.756
897.819
900.813
903.733
906.577
909.339
912.017
914.607
917.104
919.507
921.81
924.012
926.105
928.085
929.948
931.691
933.312
934.813
936.192
937.45
938.581
939.585
940.459
941.204
941.82
942.307
942.667
942.898
942.981
942.971
942.798
942.482
942.027
941.417
940.669
939.742
938.682
937.487
936.152
934.686
933.061
931.348
929.459
927.505
925.369
923.192
920.835
918.462
915.909
913.356
910.635
907.896
905.079
902.165
899.266
896.26
893.273
890.223
887.187
884.129
881.081
878.044
875.029
872.045
869.099
866.202
863.363
860.593
857.91
855.341
852.921
850.699
848.76
847.24
846.528
846.989
850.436
11463.2
2877.52
1666.61
1152.16
792.396
559.402
421.644
337.103
285.015
251.238
227.923
210.964
198.163
188.213
180.234
173.795
168.722
164.94
162.385
161.159
161.335
162.599
165.395
170.294
177.571
188.237
203.27
222.507
246.19
278.421
325.103
389.198
481.003
562.111
622.282
680.67
738.82
790.754
833.326
870.642
906.016
932.105
939.925
923.171
895.983
872.042
840.33
813.701
784.083
760.735
738.558
721.391
706.852
695.54
686.823
680.564
676.417
674.328
673.558
673.466
674.49
676.337
678.91
681.904
685.309
688.99
692.894
696.973
701.18
705.477
709.836
714.232
718.645
723.057
727.457
731.832
736.174
740.479
744.74
748.957
753.127
757.252
761.334
765.374
769.375
773.342
777.277
781.184
785.063
788.924
792.763
796.593
800.41
804.216
808.01
811.789
815.552
819.289
822.994
826.653
830.254
833.789
837.254
840.642
843.948
847.168
850.296
853.329
856.26
859.085
861.801
864.404
866.889
869.256
871.5
873.616
875.601
877.454
879.174
880.76
882.215
883.54
884.734
885.797
886.728
887.528
888.198
888.737
889.148
889.429
889.567
889.59
889.479
889.226
888.833
888.3
887.621
886.8
885.826
884.714
883.465
882.075
880.549
878.876
877.079
875.134
873.072
870.863
868.548
866.098
863.56
860.894
858.15
855.291
852.359
849.351
846.262
843.132
839.935
836.712
833.447
830.169
826.875
823.58
820.291
817.02
813.777
810.569
807.406
804.296
801.25
798.285
795.421
792.689
790.132
787.815
785.839
784.468
784
785.246
11463.2
3339.19
1704.02
988.542
620.772
437.21
345.66
292.584
257.977
233.022
214.286
200.01
188.779
179.631
172.085
165.906
161.001
157.356
155.08
154.27
154.835
156.858
160.883
167.236
176.791
190.237
208.601
235.688
277.908
341.018
430.23
515.864
581.198
637.438
688.07
730.37
763.931
791.592
818.032
832.4
835.618
821.922
803.237
783.322
761.184
739.811
717.159
697.13
678.269
663.021
649.857
639.571
631.377
625.328
621.135
618.883
617.932
617.86
618.818
620.68
623.326
626.531
630.214
634.24
638.55
643.076
647.767
652.586
657.494
662.464
667.473
672.5
677.529
682.548
687.546
692.515
697.449
702.344
707.199
712.012
716.784
721.517
726.213
730.876
735.508
740.112
744.69
749.244
753.777
758.286
762.776
767.248
771.696
776.123
780.52
784.886
789.212
793.493
797.718
801.881
805.974
809.992
813.921
817.753
821.482
825.101
828.604
831.986
835.24
838.363
841.35
844.197
846.899
849.45
851.854
854.11
856.214
858.167
859.971
861.628
863.139
864.508
865.736
866.824
867.773
868.586
869.262
869.804
870.214
870.489
870.612
870.619
870.474
870.193
869.772
869.206
868.492
867.632
866.62
865.462
864.157
862.704
861.102
859.348
857.447
855.394
853.198
850.85
848.352
845.705
842.937
840.039
837.031
833.906
830.684
827.37
823.972
820.507
816.977
813.4
809.783
806.138
802.476
798.806
795.14
791.488
787.863
784.272
780.723
777.226
773.791
770.433
767.171
764.031
761.047
758.273
755.779
753.745
752.329
751.928
11463.2
3475.98
1507.64
788.705
498.639
369.297
301.878
262.023
236.401
218.729
205.477
194.419
184.846
176.611
169.61
163.84
159.412
156.507
155.144
155.288
156.955
160.592
166.96
176.97
192.84
217.36
253.296
308.756
385.21
463.467
526.026
578.406
624.786
664.942
697.703
724.802
745.49
754.805
755.183
744.401
731.18
715.426
698.995
682.454
665.525
649.081
633.296
619.495
607.502
597.814
589.951
583.989
579.648
576.919
575.669
575.409
576.084
577.771
580.308
583.533
587.345
591.621
596.279
601.236
606.433
611.817
617.347
622.987
628.707
634.481
640.287
646.107
651.926
657.731
663.513
669.262
674.975
680.648
686.281
691.874
697.426
702.942
708.424
713.875
719.298
724.694
730.065
735.411
740.731
746.029
751.297
756.534
761.737
766.9
772.016
777.078
782.08
787.012
791.866
796.634
801.312
805.886
810.343
814.674
818.872
822.931
826.845
830.607
834.214
837.659
840.94
844.054
847
849.775
852.38
854.813
857.074
859.166
861.091
862.853
864.456
865.903
867.197
868.341
869.336
870.186
870.892
871.456
871.881
872.165
872.287
872.275
872.102
871.791
871.332
870.72
869.952
869.027
867.942
866.697
865.291
863.722
861.987
860.083
858.013
855.773
853.368
850.795
848.055
845.158
842.118
838.935
835.619
832.175
828.616
824.95
821.189
817.346
813.432
809.46
805.442
801.39
797.315
793.229
789.144
785.071
781.023
777.008
773.035
769.114
765.254
761.471
757.78
754.205
750.775
747.532
744.525
741.866
739.607
737.841
11463.2
3323.75
1250.7
645.815
434.522
339.649
287.49
254.639
233.081
217.253
204.991
195.013
186.597
179.365
173.248
168.374
164.98
163.284
163.478
165.978
170.962
179.539
193.451
214.481
247.394
295.005
355.014
417.933
473.405
521.752
563.387
599.857
631.322
658.905
679.643
688.857
689.838
682.068
672.821
660.41
647.915
635.151
622.468
609.793
597.226
585.331
574.561
565.393
557.791
551.784
547.225
544.064
542.371
541.791
542.036
543.367
545.597
548.632
552.37
556.704
561.544
566.803
572.409
578.297
584.414
590.715
597.161
603.72
610.362
617.064
623.806
630.563
637.321
644.067
650.788
657.475
664.121
670.723
677.287
683.808
690.288
696.729
703.136
709.511
715.858
722.176
728.466
734.723
740.94
747.106
753.24
759.333
765.382
771.376
777.309
783.169
788.948
794.635
800.218
805.686
811.021
816.216
821.261
826.15
830.873
835.425
839.799
843.989
847.989
851.794
855.403
858.813
862.025
865.038
867.853
870.469
872.891
875.121
877.166
879.03
880.721
882.24
883.595
884.787
885.822
886.702
887.429
888.007
888.436
888.719
888.829
888.778
888.577
888.223
887.709
887.032
886.187
885.172
883.984
882.62
881.077
879.352
877.442
875.343
873.054
870.574
867.904
865.046
862.001
858.776
855.381
851.822
848.107
844.246
840.249
836.13
831.9
827.575
823.169
818.697
814.171
809.608
805.017
800.412
795.805
791.21
786.64
782.105
777.613
773.175
768.802
764.508
760.308
756.222
752.275
748.5
744.932
741.665
738.703
735.859
11463.2
2934.21
1020.39
552.654
389.857
315.395
275.228
250.588
233.457
221.009
211.184
202.964
195.934
190.042
185.437
182.606
181.829
183.647
188.657
197.145
209.963
229.171
256.796
293.812
337.826
384.408
430.114
471.818
508.732
541.553
570.128
595.805
617.644
629.358
632.416
629.319
622.898
613.671
604.2
594.336
584.809
575.326
565.882
556.512
547.487
539.217
532.001
526.022
521.296
517.817
515.604
514.631
514.502
515.354
517.166
519.866
523.364
527.577
532.422
537.815
543.683
549.954
556.564
563.454
570.576
577.887
585.352
592.936
600.613
608.36
616.168
623.991
631.817
639.632
647.425
655.182
662.891
670.538
678.098
685.599
693.062
700.492
707.89
715.262
722.609
729.932
737.23
744.503
751.748
758.971
766.139
773.25
780.29
787.248
794.112
800.868
807.507
814.016
820.381
826.588
832.624
838.481
844.151
849.625
854.897
859.957
864.8
869.419
873.808
877.963
881.883
885.565
889.013
892.228
895.213
897.97
900.505
902.824
904.938
906.853
908.578
910.118
911.481
912.671
913.694
914.555
915.255
915.799
916.189
916.421
916.479
916.359
916.086
915.647
915.04
914.256
913.293
912.146
910.81
909.282
907.557
905.63
903.496
901.151
898.593
895.819
892.831
889.628
886.216
882.598
878.785
874.783
870.603
866.255
861.752
857.108
852.34
847.464
842.497
837.455
832.355
827.21
822.036
816.845
811.651
806.47
801.313
796.193
791.121
786.107
781.164
776.305
771.543
766.898
762.39
758.043
753.885
749.981
746.319
742.473
11463.2
2491.17
890.197
516.604
377.917
311.99
276.245
255.288
241.508
231.536
223.778
217.534
212.641
209.451
208.331
209.582
214.366
222.704
233.949
248.951
269.631
296.308
327.875
362.283
397.126
430.735
462.142
490.72
516.026
539.178
560.069
574.008
579.561
580.251
577.625
572.026
565.246
557.981
550.961
544.02
537.196
530.326
523.453
516.727
510.424
504.838
500.174
496.54
493.958
492.586
492.166
492.624
494.05
496.399
499.623
503.658
508.43
513.869
519.901
526.457
533.471
540.895
548.661
556.699
564.965
573.421
582.029
590.756
599.569
608.43
617.278
626.133
635.005
643.882
652.752
661.598
670.407
679.174
687.911
696.609
705.274
713.901
722.49
731.045
739.569
748.061
756.519
764.935
773.302
781.601
789.83
797.979
806.03
813.973
821.786
829.458
836.973
844.318
851.479
858.439
865.188
871.711
878.003
884.052
889.852
895.395
900.673
905.681
910.411
914.862
919.029
922.915
926.522
929.855
932.919
935.723
938.273
940.582
942.66
944.524
946.177
947.633
948.899
949.986
950.898
951.643
952.222
952.642
952.904
953.003
952.926
952.67
952.252
951.662
950.893
949.939
948.793
947.452
945.909
944.159
942.194
940.008
937.594
934.947
932.062
928.937
925.573
921.968
918.128
914.058
909.766
905.261
900.555
895.658
890.587
885.358
879.99
874.501
868.912
863.24
857.504
851.719
845.901
840.066
834.227
828.4
822.6
816.84
811.132
805.49
799.927
794.454
789.085
783.837
778.726
773.774
768.997
764.45
760.114
755.356
11463.2
2087.52
773.983
473.922
363.143
310.381
282.056
265.164
254.234
246.677
241.278
237.651
236.02
235.942
238.881
245.036
254.476
266.733
281.798
300.479
322.489
346.968
372.764
398.682
423.803
447.471
469.101
489.275
508.316
523.116
530.895
533.869
534.518
532.716
529.112
524.558
519.769
514.976
510.279
505.559
500.785
495.936
491.132
486.565
482.479
479.087
476.531
475.013
474.462
474.738
475.991
478.153
481.217
485.167
489.998
495.609
501.914
508.849
516.347
524.334
532.728
541.416
550.329
559.51
568.927
578.543
588.317
598.211
608.194
618.243
628.36
638.5
648.639
658.763
668.875
678.96
689
698.993
708.939
718.833
728.661
738.439
748.181
757.891
767.57
777.218
786.825
796.384
805.877
815.293
824.613
833.826
842.915
851.858
860.635
869.225
877.614
885.784
893.718
901.402
908.822
915.965
922.822
929.382
935.639
941.584
947.211
952.512
957.484
962.123
966.427
970.398
974.039
977.353
980.354
983.057
985.471
987.612
989.497
991.146
992.568
993.776
994.785
995.608
996.252
996.727
997.036
997.189
997.183
997.015
996.68
996.172
995.498
994.652
993.624
992.403
990.985
989.364
987.532
985.481
983.202
980.685
977.922
974.905
971.629
968.09
964.288
960.222
955.896
951.316
946.489
941.425
936.136
930.636
924.943
919.075
913.054
906.901
900.637
894.283
887.858
881.38
874.867
868.335
861.799
855.276
848.782
842.332
835.941
829.624
823.395
817.267
811.25
805.36
799.611
794.02
788.601
783.396
778.402
772.798
11463.2
1943.88
757.901
472.397
366.316
318.09
292.951
278.663
270.007
264.644
261.761
260.742
261.393
264.663
270.6
279.175
290.169
303.37
318.771
335.959
354.518
373.897
393.237
411.818
429.433
446.362
462.908
476.574
485.7
491.125
493.789
494.548
494.236
492.574
490.231
487.579
484.83
482.02
479.144
476.171
473.141
470.132
467.298
464.819
462.893
461.808
461.504
462.134
463.763
466.262
469.642
473.882
478.946
484.758
491.143
498.227
506.038
514.526
523.621
533.249
543.335
553.825
564.653
575.73
586.997
598.398
609.88
621.395
632.896
644.353
655.76
667.11
678.357
689.493
700.513
711.442
722.32
733.166
743.987
754.796
765.581
776.355
787.129
797.903
808.669
819.415
830.129
840.791
851.381
861.866
872.239
882.467
892.533
902.412
912.08
921.512
930.687
939.587
948.188
956.482
964.451
972.086
979.372
986.303
992.868
999.061
1004.88
1010.31
1015.35
1020
1024.27
1028.15
1031.64
1034.74
1037.49
1039.89
1041.96
1043.72
1045.2
1046.41
1047.38
1048.12
1048.64
1048.98
1049.14
1049.13
1048.95
1048.64
1048.16
1047.54
1046.76
1045.82
1044.73
1043.48
1042.05
1040.43
1038.61
1036.59
1034.36
1031.9
1029.21
1026.27
1023.07
1019.6
1015.85
1011.83
1007.52
1002.93
998.053
992.906
987.489
981.813
975.89
969.739
963.377
956.827
950.11
943.25
936.269
929.19
922.034
914.821
907.569
900.297
893.021
885.76
878.528
871.347
864.232
857.203
850.272
843.453
836.754
830.189
823.771
817.516
811.433
805.558
799.915
793.51
11463.2
1883.81
739.743
470.314
372.724
328.385
305.983
293.834
286.938
283.403
282.109
282.287
284.979
289.895
296.88
305.742
316.217
328.085
341.084
354.902
369.124
383.296
397.123
410.797
424.437
436.262
444.955
451.38
456.11
459.156
460.909
461.708
461.934
461.687
461.092
460.312
459.412
458.421
457.389
456.393
455.605
455.179
455.065
455.374
456.293
457.896
460.16
462.976
466.426
470.77
476.066
482.311
489.485
497.57
506.61
516.535
527.284
538.769
550.892
563.556
576.658
590.102
603.783
617.581
631.397
645.141
658.739
672.132
685.22
697.945
710.271
722.176
733.71
744.933
755.897
766.702
777.461
788.261
799.116
810.131
821.25
832.483
843.851
855.332
866.885
878.477
890.079
901.646
913.137
924.525
935.762
946.818
957.654
968.254
978.591
988.637
998.369
1007.76
1016.78
1025.44
1033.7
1041.58
1049.04
1056.08
1062.69
1068.87
1074.61
1079.9
1084.74
1089.13
1093.09
1096.62
1099.72
1102.41
1104.71
1106.64
1108.17
1109.34
1110.17
1110.72
1110.98
1110.97
1110.73
1110.3
1109.68
1108.88
1107.92
1106.81
1105.57
1104.19
1102.68
1101.04
1099.26
1097.35
1095.29
1093.07
1090.69
1088.11
1085.32
1082.32
1079.08
1075.59
1071.83
1067.81
1063.5
1058.9
1054.01
1048.82
1043.33
1037.56
1031.5
1025.16
1018.56
1011.72
1004.65
997.385
989.941
982.343
974.615
966.78
958.861
950.878
942.853
934.807
926.758
918.726
910.724
902.779
894.912
887.141
879.48
871.942
864.533
857.268
850.157
843.216
836.455
829.897
823.609
816.442
11463.2
1850.71
733.023
474.323
381.817
340.613
320.068
309.004
302.998
300.172
299.314
300.087
303.258
308.265
314.809
322.61
331.375
340.933
351.049
361.494
371.998
382.531
393.118
402.466
410.323
416.904
422.622
427.31
431.214
434.45
437.235
439.772
442.163
444.307
446.245
448.036
449.733
451.378
453.021
454.686
456.335
458.026
460.24
463.059
466.604
470.946
476.133
482.273
489.442
497.645
506.927
517.287
528.689
541.127
554.62
569.155
584.68
600.96
617.833
635.143
652.732
670.433
688.084
705.519
722.579
739.109
754.95
769.966
784.104
797.314
809.567
820.865
831.246
840.903
849.896
858.448
866.93
875.587
884.755
894.607
904.771
915.253
926.143
937.406
948.927
960.625
972.424
984.272
996.098
1007.84
1019.43
1030.82
1041.96
1052.82
1063.36
1073.55
1083.38
1092.81
1101.85
1110.49
1118.7
1126.46
1133.76
1140.57
1146.89
1152.72
1158.05
1162.88
1167.2
1171.03
1174.36
1177.21
1179.59
1181.53
1183.04
1184.15
1184.81
1185.02
1184.84
1184.41
1183.61
1182.51
1181.17
1179.61
1177.86
1175.93
1173.86
1171.65
1169.32
1166.89
1164.34
1161.7
1158.94
1156.08
1153.11
1150.03
1146.8
1143.4
1139.82
1136.04
1132.04
1127.8
1123.32
1118.57
1113.55
1108.25
1102.65
1096.75
1090.56
1084.07
1077.3
1070.25
1062.94
1055.39
1047.6
1039.6
1031.41
1023.05
1014.56
1005.95
997.246
988.473
979.654
970.811
961.968
953.144
944.353
935.63
926.995
918.466
910.058
901.783
893.651
885.672
877.854
870.216
862.767
855.519
848.589
840.697
11463.7
1819.37
728.927
480.163
391.861
352.222
332.638
322.169
316.229
313.396
312.499
313.032
315.763
319.97
325.37
331.679
338.651
346.211
354.228
362.635
370.927
378.892
386.402
393.702
400.578
407.127
413.415
419.425
425.157
430.592
435.702
440.36
444.613
448.766
452.897
457.069
461.354
465.814
470.539
475.624
481.279
487.774
495.136
503.207
512.069
521.769
532.381
543.985
556.633
570.37
585.352
601.589
618.882
637.151
656.32
676.247
696.781
717.86
739.337
761.03
782.729
804.228
825.304
845.731
865.282
883.748
900.96
916.794
931.193
944.15
955.695
965.85
974.451
982.02
989.022
995.707
1002.22
1008.69
1015.36
1022.23
1029.26
1036.72
1045.11
1054.48
1064.46
1074.89
1085.63
1096.59
1107.68
1118.78
1129.79
1140.63
1151.26
1161.6
1171.6
1181.21
1190.41
1199.17
1207.53
1215.46
1222.92
1229.89
1236.33
1242.23
1247.61
1252.43
1256.71
1260.44
1263.63
1266.27
1268.37
1269.97
1271.02
1271.55
1271.57
1271.26
1270.46
1269.19
1267.55
1265.57
1263.27
1260.71
1257.9
1254.9
1251.74
1248.43
1245.01
1241.48
1237.88
1234.2
1230.44
1226.62
1222.72
1218.74
1214.67
1210.5
1206.21
1201.77
1197.18
1192.43
1187.48
1182.33
1176.97
1171.36
1165.49
1159.36
1152.95
1146.26
1139.28
1132.01
1124.46
1116.65
1108.57
1100.24
1091.68
1082.9
1073.91
1064.76
1055.45
1046.02
1036.5
1026.89
1017.22
1007.54
997.851
988.193
978.606
969.102
959.696
950.402
941.236
932.209
923.333
914.62
906.078
897.728
889.581
881.633
874.054
865.47
11462.8
1800.98
727.49
486.264
399.506
360.681
341.83
331.594
325.604
322.688
321.693
321.846
324.155
327.835
332.72
338.662
345.269
352.422
359.978
367.77
375.876
384.202
392.413
400.656
408.892
417.195
425.611
434.159
442.759
451.408
460.178
469.188
478.52
488.185
498.254
508.784
519.854
531.516
543.839
556.84
570.576
584.981
599.882
615.317
631.273
647.747
664.807
682.465
700.707
719.557
739.102
759.247
780.057
801.56
823.759
846.594
869.962
893.754
917.794
941.88
965.794
989.293
1012.11
1033.95
1054.54
1073.57
1090.84
1106.2
1119.6
1131.14
1141.03
1149.47
1156.43
1162.04
1166.87
1171.26
1175.13
1178.69
1181.93
1184.82
1188.03
1191.98
1196.5
1202.33
1209.16
1216.75
1224.98
1233.67
1242.72
1251.94
1261.21
1270.36
1279.31
1288
1296.34
1304.3
1311.8
1318.8
1325.27
1331.31
1336.83
1341.82
1346.27
1350.18
1353.55
1356.37
1358.6
1360.31
1361.49
1362.13
1362.23
1361.87
1360.98
1359.61
1357.8
1355.59
1352.96
1349.95
1346.6
1342.95
1339.05
1334.94
1330.64
1326.19
1321.64
1316.99
1312.27
1307.5
1302.69
1297.84
1292.96
1288.04
1283.08
1278.06
1272.99
1267.83
1262.58
1257.21
1251.71
1246.07
1240.27
1234.28
1228.1
1221.7
1215.06
1208.18
1201.03
1193.62
1185.93
1177.97
1169.74
1161.24
1152.48
1143.47
1134.21
1124.73
1115.05
1105.19
1095.17
1085.01
1074.75
1064.41
1054.01
1043.58
1033.15
1022.74
1012.4
1002.15
991.987
981.936
972.013
962.232
952.609
943.159
933.909
924.874
916.052
907.428
899.214
890.003
11461.8
1779.79
724.54
488.402
404.04
366.595
348.729
339.137
333.881
331.449
330.843
331.797
334.873
339.441
345.349
352.333
360.529
369.977
379.706
390.158
401.605
413.748
426.238
439.366
453.172
467.69
482.909
498.799
515.398
532.827
551.169
570.478
590.737
611.871
633.88
656.761
680.534
705.199
730.767
756.899
783.349
809.779
835.797
861.188
885.793
909.567
932.804
955.443
977.14
997.901
1017.61
1036.57
1055.29
1074.11
1093.25
1112.88
1133.04
1153.81
1175.01
1196.47
1217.99
1239.29
1260.08
1280.02
1298.68
1315.65
1330.48
1342.92
1352.77
1360.05
1365.38
1368.98
1370.94
1372.62
1372.68
1371.39
1368.81
1365.68
1362.64
1359.75
1357.67
1358.11
1358.53
1359.79
1362.17
1365.71
1370.15
1375.37
1381.21
1387.44
1393.85
1400.25
1406.36
1412.26
1417.84
1423.04
1427.84
1432.06
1435.63
1438.84
1441.54
1443.76
1445.48
1446.71
1447.53
1447.82
1447.5
1446.75
1445.56
1443.91
1441.8
1439.27
1436.32
1432.97
1429.26
1425.21
1420.83
1416.15
1411.22
1406.07
1400.74
1395.27
1389.68
1384.02