/*--------------------------------*- C++ -*----------------------------------*\
  =========                 |
  \\      /  F ield         | OpenFOAM: The Open Source CFD Toolbox
   \\    /   O peration     | Website:  https://openfoam.org
    \\  /    A nd           | Version:  13
     \\/     M anipulation  |
\*---------------------------------------------------------------------------*/
FoamFile
{
    format      ascii;
    class       volScalarField;
    location    "1300";
    object      p;
}
// * * * * * * * * * * * * * * * * * * * * * * * * * * * * * * * * * * * * * //

dimensions      [0 2 -2 0 0 0 0];

internalField   nonuniform List<scalar> 
12225
(
-4.34676
-5.2009
-5.60415
-5.73665
-5.87001
-6.04164
-6.19588
-6.32832
-6.45276
-6.56275
-6.63388
-6.68778
-6.75017
-6.81614
-6.88568
-6.96221
-7.0485
-7.15609
-4.62035
-5.23926
-5.57934
-5.7111
-5.84289
-6.01268
-6.16762
-6.29653
-6.41318
-6.51708
-6.59821
-6.66697
-6.7348
-6.80121
-6.86758
-6.93849
-7.01427
-7.07793
-4.79455
-5.23009
-5.55732
-5.72435
-5.86675
-6.02308
-6.17105
-6.29669
-6.40866
-6.50632
-6.58953
-6.66386
-6.73049
-6.79266
-6.85489
-6.91949
-6.98273
-7.03164
-4.9256
-5.24504
-5.55949
-5.74467
-5.88116
-6.01934
-6.15881
-6.28093
-6.38896
-6.48418
-6.56808
-6.64252
-6.70929
-6.7723
-6.83415
-6.89531
-6.95275
-6.9978
-5.0634
-5.29592
-5.57536
-5.75779
-5.88892
-6.02044
-6.1541
-6.27364
-6.37885
-6.47232
-6.55613
-6.6305
-6.69743
-6.76024
-6.82035
-6.87766
-6.93007
-6.97199
-5.18976
-5.35735
-5.59385
-5.76883
-5.89798
-6.02426
-6.15192
-6.26747
-6.36939
-6.46041
-6.54222
-6.61517
-6.6812
-6.74276
-6.80073
-6.85464
-6.90295
-6.9421
-5.29009
-5.41875
-5.62037
-5.78594
-5.91161
-6.03192
-6.1528
-6.26368
-6.36219
-6.4504
-6.52985
-6.60147
-6.66666
-6.72695
-6.78285
-6.83387
-6.87905
-6.91625
-5.3738
-5.47437
-5.65035
-5.80445
-5.92534
-6.03979
-6.15403
-6.26003
-6.35499
-6.44033
-6.5176
-6.58779
-6.65167
-6.71017
-6.76377
-6.81221
-6.8549
-6.89046
-5.45354
-5.52902
-5.68112
-5.82302
-5.93893
-6.04783
-6.15569
-6.25675
-6.34818
-6.43077
-6.50589
-6.57428
-6.63642
-6.69302
-6.74458
-6.79096
-6.83174
-6.86602
-5.52625
-5.58479
-5.71293
-5.84201
-5.9523
-6.05569
-6.15749
-6.25367
-6.34148
-6.42122
-6.49395
-6.56025
-6.62052
-6.67533
-6.72507
-6.76964
-6.80879
-6.84197
-5.59293
-5.63968
-5.74598
-5.86179
-5.96555
-6.06328
-6.15915
-6.25037
-6.33438
-6.4111
-6.48131
-6.54547
-6.60393
-6.65706
-6.70513
-6.74813
-6.78596
-6.81835
-5.64892
-5.68788
-5.77724
-5.8809
-5.97796
-6.07023
-6.16062
-6.24714
-6.32749
-6.40137
-6.46922
-6.53144
-6.58825
-6.63989
-6.68658
-6.72834
-6.76524
-6.79716
-5.69961
-5.73256
-5.80797
-5.90023
-5.9904
-6.07712
-6.16213
-6.24398
-6.3207
-6.39172
-6.45724
-6.51751
-6.57267
-6.62287
-6.66827
-6.70897
-6.74512
-6.77671
-5.75136
-5.77892
-5.84162
-5.92216
-6.00444
-6.08487
-6.16399
-6.24072
-6.31336
-6.38112
-6.44396
-6.50199
-6.55526
-6.60385
-6.64792
-6.68757
-6.72302
-6.75432
-5.80217
-5.82492
-5.87661
-5.94582
-6.01958
-6.09321
-6.16616
-6.23746
-6.30563
-6.36978
-6.42963
-6.48514
-6.53631
-6.58317
-6.62585
-6.66446
-6.69925
-6.73032
-5.8491
-5.86781
-5.91043
-5.96944
-6.03472
-6.10142
-6.16818
-6.23399
-6.29752
-6.35784
-6.41449
-6.46733
-6.51627
-6.56134
-6.60259
-6.64019
-6.67433
-6.70515
-5.888
-5.90358
-5.9393
-5.98996
-6.04768
-6.10793
-6.16895
-6.2296
-6.28868
-6.34524
-6.39873
-6.4489
-6.49565
-6.53894
-6.57883
-6.61544
-6.64896
-6.67952
-5.91283
-5.92635
-5.95759
-6.00256
-6.05474
-6.11001
-6.1665
-6.22303
-6.27844
-6.33181
-6.38257
-6.43042
-6.47522
-6.51694
-6.55561
-6.59134
-6.62428
-6.65458
-5.91408
-5.92695
-5.95682
-5.99991
-6.04995
-6.10301
-6.15732
-6.21175
-6.26519
-6.31673
-6.36582
-6.41218
-6.45571
-6.49637
-6.53422
-6.56936
-6.60192
-6.63212
-5.88346
-5.89799
-5.93126
-5.9781
-6.03107
-6.08612
-6.14194
-6.19749
-6.2517
-6.3036
-6.35281
-6.3991
-6.44248
-6.48293
-6.52058
-6.55554
-6.58798
-6.61813
-5.83836
-5.85594
-5.89566
-5.94961
-6.0081
-6.06726
-6.12641
-6.1848
-6.24109
-6.29444
-6.34456
-6.39148
-6.43521
-6.47587
-6.51359
-6.54858
-6.58103
-6.6112
-5.77995
-5.80278
-5.85296
-5.91722
-5.983
-6.04749
-6.11137
-6.17372
-6.23294
-6.28828
-6.33977
-6.38758
-6.43186
-6.47278
-6.51059
-6.54559
-6.57801
-6.60819
-5.71035
-5.74171
-5.80719
-5.88431
-5.9579
-6.02834
-6.09779
-6.16473
-6.22719
-6.28477
-6.33787
-6.38675
-6.43164
-6.4728
-6.51063
-6.5455
-6.57771
-6.60763
-5.6304
-5.67543
-5.76229
-5.85348
-5.93416
-6.01092
-6.08675
-6.1585
-6.224
-6.28364
-6.33825
-6.38813
-6.43353
-6.47486
-6.51263
-6.54734
-6.57938
-6.60922
-5.5401
-5.60668
-5.72189
-5.82642
-5.91203
-5.99501
-6.07782
-6.15458
-6.22308
-6.28472
-6.34077
-6.3915
-6.43715
-6.47832
-6.51568
-6.54983
-6.58125
-6.6105
-5.43932
-5.53803
-5.68819
-5.80417
-5.89286
-5.98131
-6.07007
-6.15094
-6.22217
-6.28593
-6.3437
-6.39563
-6.44195
-6.48339
-6.52075
-6.55475
-6.58598
-6.61527
-5.32778
-5.47323
-5.65767
-5.78069
-5.87448
-5.97074
-6.0651
-6.14875
-6.22165
-6.28674
-6.34537
-6.39775
-6.44412
-6.48531
-6.52223
-6.55578
-6.58669
-6.61607
-5.19506
-5.42961
-5.63626
-5.75247
-5.85174
-5.96005
-6.06298
-6.15164
-6.22811
-6.29603
-6.35661
-6.41009
-6.45686
-6.49778
-6.53389
-6.5664
-6.59645
-6.62629
-4.99887
-5.40245
-5.64004
-5.73829
-5.83372
-5.94717
-6.05374
-6.14436
-6.22278
-6.29266
-6.35477
-6.40936
-6.45684
-6.49769
-6.53263
-6.56279
-6.58992
-6.6155
-4.73867
-5.33335
-5.63673
-5.74611
-5.8495
-5.97082
-6.08155
-6.17347
-6.2525
-6.32253
-6.38426
-6.43817
-6.48494
-6.5246
-6.55714
-6.58337
-6.60557
-6.62352
-7.54643
-7.54655
-7.54659
-7.54653
-7.54615
-7.54497
-7.54273
-7.53989
-7.53729
-7.53586
-7.53642
-7.53906
-7.5433
-7.54841
-7.55374
-7.55869
-7.56283
-7.56576
-7.56746
-7.56824
-7.56838
-7.56806
-7.56746
-7.56682
-7.56635
-7.56614
-7.5661
-7.56605
-7.56586
-7.56547
-7.56494
-7.56431
-7.56354
-7.56255
-7.56136
-7.56015
-7.55946
-7.55996
-7.56193
-7.56486
-7.56781
-7.56993
-7.57101
-7.57145
-7.57181
-7.57261
-7.57438
-7.57714
-7.58002
-7.58212
-7.58391
-7.58831
-7.59943
-7.61999
-7.64999
-7.68834
-7.73445
-7.78776
-7.84743
-7.91156
-7.97812
-8.04518
-8.11126
-8.17482
-8.23496
-8.29097
-8.34263
-8.38933
-8.43132
-8.46856
-8.50146
-8.5301
-8.55492
-8.57603
-8.59385
-8.60844
-8.62017
-8.62908
-8.63542
-8.63912
-8.64031
-8.63879
-8.63455
-8.62728
-8.61684
-8.60294
-8.58539
-8.5639
-8.53816
-8.50778
-8.47241
-8.43172
-8.38544
-8.33328
-8.27497
-8.21031
-8.13912
-8.06124
-7.97651
-7.88481
-7.78596
-7.67979
-7.56612
-7.44506
-7.31681
-7.1815
-7.03932
-6.89054
-6.73544
-6.57431
-6.40749
-6.23532
-6.05819
-5.87647
-5.69054
-5.50074
-5.30733
-5.1105
-4.91045
-4.70744
-4.50172
-4.29354
-4.08297
-3.8701
-3.65482
-3.43717
-3.21698
-2.99422
-2.76865
-2.54022
-2.30864
-2.07388
-1.83566
-1.59393
-1.34846
-1.09927
-0.846274
-0.589577
-0.329122
-0.0649187
0.203028
0.47444
0.749028
1.02646
1.30641
1.58845
1.87214
2.15697
2.44244
2.72797
3.01303
3.29703
3.57943
3.85964
4.13716
4.41145
4.68204
4.94845
5.2103
5.46721
5.71887
5.96502
6.20546
6.44003
6.66861
6.89113
7.10753
7.31784
7.52204
7.7202
7.91239
8.09873
8.27932
8.45433
8.6239
8.78829
8.94806
9.10323
9.25716
9.40165
-7.54749
-7.54764
-7.54791
-7.54817
-7.54808
-7.54728
-7.54559
-7.54356
-7.5423
-7.5426
-7.54468
-7.54833
-7.55305
-7.55826
-7.56344
-7.56815
-7.57208
-7.57508
-7.57696
-7.57755
-7.57691
-7.57531
-7.57315
-7.57089
-7.56889
-7.56739
-7.56641
-7.56576
-7.56521
-7.56464
-7.56412
-7.56366
-7.56316
-7.56254
-7.56177
-7.56118
-7.56144
-7.56308
-7.56601
-7.56939
-7.57219
-7.57367
-7.57364
-7.57251
-7.57094
-7.56935
-7.56839
-7.56913
-7.5729
-7.57888
-7.58463
-7.59177
-7.60452
-7.62419
-7.65174
-7.68884
-7.73616
-7.79242
-7.85514
-7.92177
-7.99027
-8.05854
-8.12491
-8.18794
-8.24704
-8.3014
-8.35053
-8.39468
-8.43415
-8.4691
-8.49987
-8.52667
-8.54987
-8.56964
-8.58631
-8.60002
-8.61103
-8.61944
-8.6254
-8.62892
-8.63004
-8.62864
-8.62464
-8.6178
-8.60791
-8.59469
-8.57792
-8.55729
-8.53249
-8.50314
-8.46886
-8.42933
-8.38425
-8.33332
-8.27628
-8.21286
-8.14286
-8.06606
-7.98229
-7.89134
-7.79304
-7.68732
-7.57431
-7.45405
-7.3266
-7.19213
-7.05081
-6.90286
-6.74851
-6.58807
-6.42187
-6.25024
-6.07358
-5.89226
-5.70669
-5.51721
-5.32409
-5.12755
-4.92781
-4.72511
-4.51974
-4.31189
-4.10171
-3.88921
-3.67442
-3.45726
-3.23766
-3.01552
-2.7907
-2.56302
-2.33233
-2.09844
-1.86118
-1.62039
-1.37588
-1.12753
-0.875188
-0.618871
-0.358708
-0.0949492
0.172281
0.442862
0.716658
0.993362
1.27266
1.55412
1.83734
2.12178
2.40696
2.6923
2.97728
3.26128
3.54378
3.82419
4.10198
4.37663
4.64766
4.91458
5.17699
5.43452
5.68685
5.9337
6.17486
6.41017
6.6395
6.86278
7.07994
7.29101
7.49597
7.6949
7.88784
8.07494
8.25632
8.4322
8.6027
8.76805
8.92873
9.08441
9.24072
9.38474
-7.54866
-7.54864
-7.54864
-7.54866
-7.5487
-7.54873
-7.54901
-7.55003
-7.5522
-7.55558
-7.55995
-7.56497
-7.57026
-7.57544
-7.5802
-7.58428
-7.5875
-7.58975
-7.59099
-7.59113
-7.59017
-7.58824
-7.5855
-7.58214
-7.57838
-7.57445
-7.5706
-7.56708
-7.56409
-7.56175
-7.56004
-7.55877
-7.55763
-7.55656
-7.55599
-7.55672
-7.55926
-7.56343
-7.5682
-7.5721
-7.57401
-7.57346
-7.57096
-7.56781
-7.56557
-7.56493
-7.56578
-7.56872
-7.5753
-7.58607
-7.60055
-7.6196
-7.64487
-7.67696
-7.71604
-7.76187
-7.81359
-7.86976
-7.92878
-7.98908
-8.04941
-8.10861
-8.16576
-8.22012
-8.27125
-8.31869
-8.36213
-8.40153
-8.43697
-8.46854
-8.49644
-8.52083
-8.54195
-8.55999
-8.57516
-8.58765
-8.59764
-8.60524
-8.61056
-8.61363
-8.61445
-8.61296
-8.60903
-8.60247
-8.59304
-8.58047
-8.56447
-8.54476
-8.52101
-8.49279
-8.45976
-8.42155
-8.37785
-8.32832
-8.27269
-8.21067
-8.14206
-8.06661
-7.98417
-7.89454
-7.7976
-7.69327
-7.58163
-7.4627
-7.33653
-7.20325
-7.06305
-6.91613
-6.76275
-6.6032
-6.4378
-6.26691
-6.09091
-5.91018
-5.72514
-5.53614
-5.34349
-5.14742
-4.94816
-4.74597
-4.54114
-4.33384
-4.12425
-3.91239
-3.6983
-3.48191
-3.26317
-3.04194
-2.81813
-2.5915
-2.36195
-2.12924
-1.89324
-1.65374
-1.4106
-1.16364
-0.912753
-0.657865
-0.399083
-0.136583
0.129443
0.39889
0.671591
0.947308
1.22569
1.50638
1.7889
2.07279
2.35751
2.64254
2.9273
3.21123
3.49374
3.77429
4.05231
4.32729
4.59872
4.86614
5.12911
5.38727
5.64026
5.88781
6.1297
6.36574
6.59581
6.81982
7.03771
7.24949
7.45515
7.65475
7.84836
8.03607
8.21801
8.39436
8.56536
8.73126
8.89286
9.04916
9.20816
9.34776
-7.54977
-7.54951
-7.54917
-7.54921
-7.55031
-7.55283
-7.5566
-7.5613
-7.56659
-7.5722
-7.57786
-7.58336
-7.5885
-7.59312
-7.59707
-7.60022
-7.60248
-7.60378
-7.6041
-7.6034
-7.60168
-7.59901
-7.59546
-7.59111
-7.58605
-7.58039
-7.5743
-7.56804
-7.56193
-7.55631
-7.55146
-7.54754
-7.54471
-7.5433
-7.54409
-7.54772
-7.55342
-7.5595
-7.56439
-7.56705
-7.56728
-7.56575
-7.56386
-7.56312
-7.56443
-7.56823
-7.57513
-7.58594
-7.60133
-7.62136
-7.64589
-7.67487
-7.70833
-7.74627
-7.78851
-7.8345
-7.88354
-7.93482
-7.98754
-8.04084
-8.09394
-8.14608
-8.19655
-8.24477
-8.2903
-8.33275
-8.37189
-8.40757
-8.43978
-8.46855
-8.49399
-8.51624
-8.53547
-8.55186
-8.56562
-8.5769
-8.58589
-8.59271
-8.59745
-8.60014
-8.60077
-8.59929
-8.59557
-8.58942
-8.5806
-8.56883
-8.5538
-8.5352
-8.51266
-8.4858
-8.4542
-8.4175
-8.37534
-8.32738
-8.2733
-8.2128
-8.14564
-8.07161
-7.9905
-7.90216
-7.80647
-7.70337
-7.5929
-7.47507
-7.34995
-7.21765
-7.07835
-6.93225
-6.77961
-6.62072
-6.45592
-6.28555
-6.11001
-5.92969
-5.74501
-5.55634
-5.364
-5.16827
-4.96938
-4.76762
-4.56326
-4.35649
-4.14747
-3.93625
-3.72288
-3.5073
-3.28946
-3.06922
-2.84647
-2.621
-2.39266
-2.16122
-1.92654
-1.6884
-1.44665
-1.2011
-0.951655
-0.698239
-0.440912
-0.179777
0.0849814
0.353253
0.624856
0.899579
1.17707
1.45699
1.73885
2.02221
2.30652
2.59128
2.87588
3.15977
3.44236
3.7231
4.0014
4.27676
4.54865
4.8166
5.08017
5.33898
5.59267
5.84096
6.0836
6.32041
6.55125
6.77602
6.99466
7.20716
7.41352
7.61377
7.80801
7.99632
8.17885
8.35577
8.52734
8.69376
8.85596
9.01231
9.17204
9.30508
-7.55199
-7.55144
-7.55111
-7.55246
-7.55632
-7.56206
-7.56869
-7.57557
-7.58232
-7.58869
-7.59456
-7.59986
-7.60455
-7.60854
-7.61177
-7.61413
-7.61558
-7.61605
-7.61552
-7.61396
-7.61137
-7.60779
-7.60326
-7.59781
-7.59151
-7.58444
-7.57669
-7.56843
-7.55991
-7.55155
-7.54391
-7.53766
-7.53362
-7.53277
-7.53559
-7.5409
-7.54668
-7.55175
-7.55546
-7.55759
-7.55876
-7.55995
-7.56224
-7.56663
-7.57397
-7.58504
-7.60044
-7.62032
-7.64421
-7.67147
-7.70177
-7.73488
-7.77073
-7.80935
-7.85068
-7.89449
-7.94037
-7.98775
-8.03606
-8.08462
-8.13282
-8.18003
-8.22571
-8.26937
-8.3106
-8.34908
-8.38458
-8.41696
-8.44618
-8.47223
-8.49519
-8.51519
-8.53238
-8.54694
-8.55908
-8.56897
-8.5768
-8.58269
-8.58674
-8.589
-8.58946
-8.58803
-8.5846
-8.57896
-8.57087
-8.56002
-8.54609
-8.52873
-8.50756
-8.48213
-8.45207
-8.41694
-8.37637
-8.33001
-8.27747
-8.21848
-8.15273
-8.08004
-8.00016
-7.91298
-7.81834
-7.71621
-7.60659
-7.48953
-7.36508
-7.23337
-7.09457
-6.94888
-6.79659
-6.63797
-6.47338
-6.30316
-6.12773
-5.94749
-5.76288
-5.57428
-5.38203
-5.18642
-4.98772
-4.78624
-4.58222
-4.37591
-4.16739
-3.95681
-3.74412
-3.52938
-3.31241
-3.09321
-2.8715
-2.64722
-2.42007
-2.18993
-1.95652
-1.71971
-1.47925
-1.23503
-0.986885
-0.734804
-0.478758
-0.218874
0.0447691
0.312002
0.582708
0.856609
1.13343
1.41276
1.69419
1.9772
2.26132
2.54596
2.83059
3.1146
3.39742
3.67845
3.95715
4.23296
4.50537
4.77388
5.03807
5.29753
5.55189
5.80088
6.04422
6.28173
6.51326
6.73872
6.95803
7.17118
7.37816
7.57901
7.7738
7.96264
8.14564
8.32301
8.49495
8.66162
8.82391
8.97965
9.13889
9.26472
-7.55597
-7.55515
-7.55565
-7.55969
-7.56641
-7.57403
-7.58172
-7.58909
-7.59592
-7.60216
-7.60779
-7.61278
-7.61708
-7.62062
-7.62331
-7.62511
-7.62594
-7.62578
-7.62459
-7.62236
-7.61909
-7.6148
-7.60951
-7.60322
-7.59595
-7.58777
-7.57881
-7.56927
-7.55938
-7.54967
-7.54094
-7.53422
-7.53058
-7.5305
-7.53305
-7.53657
-7.54012
-7.54362
-7.5472
-7.5511
-7.55566
-7.5614
-7.56929
-7.58038
-7.59521
-7.61379
-7.63588
-7.66114
-7.68926
-7.71986
-7.75272
-7.7877
-7.8247
-7.86364
-7.9044
-7.94676
-7.99043
-8.03498
-8.07998
-8.12491
-8.16929
-8.21264
-8.2545
-8.29446
-8.33216
-8.36729
-8.39964
-8.42905
-8.45547
-8.47888
-8.49936
-8.51702
-8.53204
-8.54461
-8.55495
-8.56328
-8.56978
-8.57463
-8.57794
-8.57975
-8.58005
-8.57877
-8.57576
-8.57081
-8.56364
-8.55393
-8.54132
-8.52541
-8.50578
-8.482
-8.45359
-8.42014
-8.38124
-8.33647
-8.28548
-8.22791
-8.1635
-8.092
-8.0132
-7.92694
-7.83309
-7.73163
-7.62253
-7.50586
-7.38169
-7.25015
-7.11142
-6.96572
-6.81332
-6.65453
-6.48971
-6.31922
-6.14351
-5.96299
-5.77813
-5.5893
-5.39686
-5.20114
-5.00245
-4.80108
-4.5973
-4.39133
-4.1833
-3.97331
-3.76135
-3.54742
-3.33141
-3.11323
-2.89267
-2.66958
-2.44369
-2.21484
-1.98274
-1.74723
-1.50806
-1.2651
-1.0182
-0.767324
-0.512445
-0.253642
0.00902823
0.27542
0.545408
0.818719
1.09508
1.37406
1.65527
1.93818
2.22231
2.50707
2.79192
3.07623
3.35943
3.64091
3.92012
4.19648
4.46947
4.73861
5.00344
5.26354
5.51856
5.76819
6.01218
6.25033
6.48248
6.70854
6.92841
7.14209
7.34955
7.55085
7.74603
7.9352
8.11849
8.29606
8.46811
8.63471
8.79668
8.95138
9.10982
9.2285
-7.56084
-7.56047
-7.56286
-7.56925
-7.57712
-7.58494
-7.5924
-7.5994
-7.60592
-7.61191
-7.61732
-7.62208
-7.6261
-7.62931
-7.63165
-7.63306
-7.63349
-7.6329
-7.63127
-7.62859
-7.62488
-7.62013
-7.61431
-7.60737
-7.59938
-7.5905
-7.58091
-7.57089
-7.5608
-7.5513
-7.54333
-7.53783
-7.53504
-7.53412
-7.53419
-7.53508
-7.53703
-7.54041
-7.54529
-7.55161
-7.55982
-7.5707
-7.58472
-7.60195
-7.62222
-7.64533
-7.67105
-7.69911
-7.72935
-7.76164
-7.79583
-7.83179
-7.86938
-7.90845
-7.94882
-7.99025
-8.03248
-8.07516
-8.11795
-8.16043
-8.20222
-8.24289
-8.28202
-8.31925
-8.35423
-8.38668
-8.41638
-8.44319
-8.46703
-8.4879
-8.50589
-8.52114
-8.53384
-8.54425
-8.5526
-8.55918
-8.56421
-8.5679
-8.57038
-8.57173
-8.57193
-8.5709
-8.56847
-8.5644
-8.55838
-8.55006
-8.53901
-8.5248
-8.50697
-8.485
-8.45844
-8.4268
-8.38965
-8.34653
-8.29707
-8.24088
-8.17771
-8.10726
-8.02935
-7.94378
-7.85047
-7.74936
-7.64048
-7.52385
-7.39959
-7.26784
-7.12877
-6.98264
-6.82972
-6.67035
-6.50487
-6.33373
-6.15733
-5.97619
-5.79072
-5.60137
-5.4085
-5.21245
-5.01357
-4.81217
-4.60854
-4.40284
-4.19528
-3.98585
-3.77466
-3.56157
-3.34658
-3.12946
-2.91013
-2.68827
-2.46375
-2.2362
-2.00548
-1.77126
-1.53341
-1.29167
-1.046
-0.796252
-0.54247
-0.284618
-0.0228038
0.242924
0.512349
0.785284
1.06136
1.34024
1.62142
1.90447
2.18881
2.47391
2.75916
3.04397
3.3277
3.60978
3.8896
4.16661
4.44025
4.71005
4.97554
5.2363
5.49196
5.74222
5.98681
6.22553
6.45821
6.68475
6.90507
7.11913
7.32692
7.52848
7.72388
7.91319
8.09657
8.27412
8.44605
8.61231
8.77371
8.92714
9.08473
9.19661
-7.56466
-7.5654
-7.57001
-7.57731
-7.58487
-7.59212
-7.59908
-7.60574
-7.61201
-7.61782
-7.62306
-7.62765
-7.63151
-7.63455
-7.6367
-7.63791
-7.63812
-7.63731
-7.63546
-7.63256
-7.62862
-7.62358
-7.61738
-7.61009
-7.6019
-7.593
-7.58361
-7.57407
-7.56494
-7.55698
-7.55072
-7.54603
-7.54231
-7.53933
-7.53753
-7.53749
-7.53937
-7.54337
-7.54986
-7.55917
-7.57138
-7.58647
-7.60436
-7.62494
-7.64804
-7.67348
-7.70109
-7.73073
-7.76228
-7.79561
-7.83062
-7.86715
-7.90508
-7.94422
-7.9844
-8.02537
-8.06688
-8.10861
-8.15025
-8.19141
-8.23172
-8.27076
-8.30816
-8.34353
-8.37656
-8.40694
-8.43447
-8.459
-8.48046
-8.49887
-8.51434
-8.52705
-8.53726
-8.54527
-8.55141
-8.55601
-8.55938
-8.56177
-8.56336
-8.56424
-8.56439
-8.56373
-8.56205
-8.55908
-8.55446
-8.54778
-8.53857
-8.52633
-8.51052
-8.49062
-8.46607
-8.43639
-8.40107
-8.35967
-8.31172
-8.2569
-8.19485
-8.12533
-8.04812
-7.96304
-7.87002
-7.76901
-7.66003
-7.54315
-7.41847
-7.28615
-7.14639
-6.99946
-6.84565
-6.68531
-6.51882
-6.34663
-6.16922
-5.9871
-5.80075
-5.6106
-5.41705
-5.22048
-5.02126
-4.81972
-4.61612
-4.41067
-4.20351
-3.99469
-3.78424
-3.57208
-3.35813
-3.14219
-2.92412
-2.70362
-2.48047
-2.25434
-2.02501
-1.79216
-1.55561
-1.31515
-1.07067
-0.822067
-0.569308
-0.312354
-0.0512706
0.213881
0.482898
0.755572
1.03154
1.31045
1.5918
1.87514
2.15988
2.44548
2.73129
3.01674
3.30116
3.58394
3.86449
4.14224
4.41663
4.68717
4.95338
5.21483
5.47116
5.72204
5.96721
6.20645
6.43961
6.66657
6.88725
7.10159
7.30961
7.51131
7.7068
7.89612
8.07944
8.25683
8.42847
8.59423
8.75488
8.90696
9.06369
9.16925
-7.56581
-7.5679
-7.57386
-7.58093
-7.58787
-7.59466
-7.60132
-7.60777
-7.61391
-7.61962
-7.62482
-7.62938
-7.63322
-7.63625
-7.6384
-7.6396
-7.63982
-7.63901
-7.63716
-7.63426
-7.63026
-7.62513
-7.6189
-7.61176
-7.60391
-7.59561
-7.58716
-7.57899
-7.57148
-7.56494
-7.55926
-7.55413
-7.5495
-7.54576
-7.54358
-7.54359
-7.5462
-7.55169
-7.56022
-7.5717
-7.58602
-7.60306
-7.6227
-7.64478
-7.66915
-7.69568
-7.72426
-7.75476
-7.78708
-7.8211
-7.85671
-7.89376
-7.93212
-7.9716
-8.012
-8.05309
-8.09461
-8.13624
-8.17765
-8.21844
-8.25822
-8.29656
-8.33308
-8.36738
-8.39912
-8.42798
-8.45375
-8.47627
-8.49549
-8.51145
-8.5243
-8.53428
-8.54174
-8.54707
-8.55069
-8.55305
-8.55453
-8.55546
-8.55606
-8.55645
-8.55662
-8.55647
-8.55574
-8.5541
-8.55115
-8.5464
-8.5393
-8.5293
-8.51579
-8.49814
-8.47582
-8.44825
-8.41487
-8.37523
-8.32882
-8.27531
-8.2143
-8.14558
-8.06888
-7.9841
-7.89113
-7.78996
-7.68063
-7.5632
-7.4378
-7.3046
-7.16385
-7.01578
-6.86076
-6.6991
-6.53128
-6.35772
-6.179
-5.99563
-5.80814
-5.61698
-5.42258
-5.22535
-5.02567
-4.82391
-4.62029
-4.41506
-4.20828
-4.0001
-3.79041
-3.57925
-3.36637
-3.15172
-2.93493
-2.71587
-2.49412
-2.26949
-2.04155
-1.81012
-1.57488
-1.33571
-1.09242
-0.844943
-0.593148
-0.337041
-0.0765854
0.188069
0.456807
0.72932
1.00534
1.28439
1.56607
1.84981
2.1351
2.4213
2.70783
2.99401
3.27924
3.56284
3.84422
4.12278
4.39799
4.6693
4.93626
5.19842
5.4554
5.70688
5.95258
6.19229
6.42586
6.65316
6.87411
7.08866
7.29678
7.49854
7.69398
7.88321
8.06632
8.24344
8.41465
8.57979
8.73958
8.89028
9.04614
9.14603
-7.56282
-7.56601
-7.57219
-7.57882
-7.58546
-7.5921
-7.59867
-7.60508
-7.61124
-7.61703
-7.62235
-7.62707
-7.63109
-7.63431
-7.63666
-7.63806
-7.63846
-7.63782
-7.63613
-7.63337
-7.62952
-7.62461
-7.61876
-7.61217
-7.6051
-7.59784
-7.59069
-7.58384
-7.57737
-7.57131
-7.56565
-7.5604
-7.55579
-7.55239
-7.55088
-7.55176
-7.55535
-7.56179
-7.57117
-7.58342
-7.59846
-7.61616
-7.63637
-7.65896
-7.68377
-7.71072
-7.7397
-7.77064
-7.80344
-7.83799
-7.87417
-7.91186
-7.95089
-7.99108
-8.03223
-8.07408
-8.11635
-8.15869
-8.20072
-8.24201
-8.28214
-8.32064
-8.35708
-8.39102
-8.42207
-8.4499
-8.47425
-8.49497
-8.512
-8.52542
-8.53544
-8.54239
-8.54671
-8.54894
-8.54964
-8.54939
-8.54868
-8.54793
-8.54743
-8.54734
-8.54764
-8.54817
-8.54864
-8.54863
-8.54766
-8.54515
-8.54049
-8.53302
-8.52204
-8.50692
-8.487
-8.46166
-8.43035
-8.39249
-8.34764
-8.29535
-8.23531
-8.1672
-8.09085
-8.00615
-7.91302
-7.81147
-7.70153
-7.58331
-7.45693
-7.32259
-7.18054
-7.03107
-6.87454
-6.71132
-6.54187
-6.36671
-6.18642
-6.00159
-5.81277
-5.62044
-5.42507
-5.2271
-5.02692
-4.82488
-4.62125
-4.41621
-4.20988
-4.00231
-3.79347
-3.5833
-3.37161
-3.15823
-2.94285
-2.72522
-2.50497
-2.28182
-2.05535
-1.82533
-1.59145
-1.35357
-1.1115
-0.865113
-0.614275
-0.358935
-0.0990768
0.165178
0.433681
0.706143
0.982251
1.26155
1.54362
1.82788
2.11379
2.40071
2.68804
2.9751
3.26122
3.54573
3.82802
4.10747
4.38353
4.65567
4.9234
5.18628
5.44392
5.69598
5.94219
6.18234
6.41627
6.64389
6.86505
7.07973
7.2879
7.48962
7.68494
7.87398
8.05681
8.23355
8.40424
8.56867
8.72755
8.87684
9.0318
9.12669
-7.55402
-7.55777
-7.56378
-7.5704
-7.57722
-7.58403
-7.59075
-7.59732
-7.60367
-7.6097
-7.6153
-7.62034
-7.62469
-7.62825
-7.63092
-7.63263
-7.63334
-7.63302
-7.63165
-7.62925
-7.62583
-7.6215
-7.61639
-7.61073
-7.6047
-7.59848
-7.59221
-7.58601
-7.57994
-7.57405
-7.5685
-7.56355
-7.55957
-7.55697
-7.55621
-7.55772
-7.5618
-7.56862
-7.57825
-7.59067
-7.6058
-7.62352
-7.6437
-7.66623
-7.69102
-7.718
-7.7471
-7.77827
-7.81142
-7.84647
-7.88333
-7.92183
-7.96186
-8.00321
-8.04567
-8.08894
-8.13269
-8.17652
-8.22001
-8.26267
-8.30402
-8.34349
-8.38061
-8.41484
-8.44575
-8.47293
-8.4961
-8.51507
-8.52981
-8.54042
-8.54721
-8.55062
-8.55128
-8.54988
-8.54718
-8.5439
-8.5407
-8.5381
-8.53646
-8.53596
-8.53656
-8.53802
-8.53996
-8.54189
-8.54322
-8.54328
-8.54136
-8.5367
-8.52854
-8.51611
-8.49877
-8.47579
-8.44658
-8.41054
-8.3672
-8.31607
-8.25684
-8.18918
-8.11301
-8.02818
-7.9347
-7.83255
-7.72181
-7.60256
-7.47497
-7.33926
-7.19568
-7.04459
-6.88632
-6.72134
-6.55008
-6.37315
-6.19113
-6.00472
-5.81447
-5.62093
-5.42455
-5.22582
-5.02514
-4.82283
-4.6192
-4.41437
-4.20852
-4.00159
-3.79367
-3.58451
-3.37408
-3.16198
-2.94808
-2.73189
-2.5132
-2.29152
-2.06658
-1.83796
-1.6055
-1.36891
-1.12809
-0.882787
-0.632903
-0.378296
-0.119019
0.144892
0.413197
0.685683
0.961933
1.24158
1.52409
1.80897
2.09558
2.38334
2.67156
2.95959
3.24668
3.53218
3.81542
4.09581
4.37276
4.64573
4.91423
5.17782
5.43609
5.6887
5.93538
6.17591
6.41016
6.63802
6.85936
7.07409
7.28223
7.48382
7.67896
7.86771
8.0502
8.22647
8.39659
8.56023
8.71816
8.86606
9.02009
9.11065
-7.53826
-7.54203
-7.5482
-7.55547
-7.56291
-7.57013
-7.57713
-7.58394
-7.59059
-7.597
-7.60305
-7.60857
-7.6134
-7.61741
-7.62054
-7.62271
-7.6239
-7.62409
-7.62328
-7.6215
-7.6188
-7.61529
-7.61108
-7.60631
-7.60112
-7.59562
-7.5899
-7.58407
-7.57822
-7.57257
-7.56736
-7.56286
-7.55937
-7.5573
-7.55704
-7.55896
-7.56331
-7.57026
-7.57987
-7.59214
-7.60698
-7.62434
-7.64411
-7.66625
-7.69071
-7.71747
-7.7465
-7.77777
-7.81123
-7.84682
-7.88447
-7.92407
-7.96548
-8.00849
-8.05284
-8.09821
-8.1442
-8.19035
-8.23616
-8.28104
-8.3244
-8.36559
-8.40402
-8.43907
-8.47021
-8.49699
-8.51905
-8.53618
-8.54837
-8.55576
-8.55877
-8.55805
-8.55441
-8.5488
-8.54218
-8.53551
-8.52957
-8.52501
-8.52225
-8.52147
-8.52255
-8.5252
-8.52891
-8.53306
-8.53697
-8.53987
-8.54094
-8.53933
-8.53417
-8.52466
-8.50999
-8.48946
-8.46235
-8.42812
-8.38619
-8.33613
-8.27755
-8.2102
-8.13399
-8.0489
-7.95489
-7.85199
-7.74026
-7.61983
-7.49086
-7.3536
-7.20836
-7.05548
-6.8954
-6.72854
-6.55543
-6.37667
-6.19293
-6.00491
-5.81324
-5.61848
-5.42111
-5.22164
-5.02046
-4.81792
-4.61427
-4.40969
-4.2043
-3.99811
-3.79107
-3.58304
-3.37384
-3.16312
-2.95067
-2.73604
-2.51891
-2.29882
-2.07544
-1.84837
-1.61737
-1.3822
-1.14267
-0.898523
-0.649579
-0.395719
-0.136964
0.126606
0.394775
0.667295
0.943777
1.22381
1.50687
1.79241
2.07982
2.36847
2.65767
2.94672
3.23485
3.52139
3.80567
4.08707
4.36496
4.63878
4.90808
5.17237
5.43127
5.68441
5.93153
6.17242
6.40696
6.63505
6.85653
7.07127
7.27932
7.48075
7.67563
7.86405
8.04613
8.2219
8.3914
8.55422
8.71116
8.85771
9.01076
9.09766
-7.51542
-7.519
-7.52588
-7.53432
-7.5426
-7.55026
-7.55753
-7.56467
-7.57182
-7.57887
-7.5856
-7.5918
-7.59728
-7.60191
-7.60564
-7.60845
-7.61031
-7.61122
-7.61118
-7.61021
-7.60836
-7.6057
-7.60231
-7.59831
-7.59376
-7.58876
-7.58343
-7.5779
-7.57236
-7.56702
-7.5621
-7.55791
-7.55479
-7.55309
-7.55318
-7.55534
-7.55978
-7.56664
-7.57597
-7.58778
-7.60202
-7.61868
-7.63772
-7.65916
-7.68301
-7.70932
-7.73809
-7.76935
-7.80308
-7.83929
-7.87793
-7.9189
-7.96208
-8.00724
-8.05409
-8.10224
-8.15124
-8.20052
-8.24947
-8.29736
-8.34347
-8.38701
-8.42727
-8.4635
-8.4951
-8.52152
-8.54235
-8.55736
-8.56657
-8.57021
-8.56883
-8.56327
-8.55467
-8.54425
-8.53327
-8.52291
-8.51412
-8.50758
-8.50377
-8.50286
-8.50463
-8.50866
-8.51434
-8.52091
-8.52758
-8.53354
-8.5378
-8.53943
-8.53747
-8.53094
-8.51906
-8.50096
-8.47591
-8.44339
-8.40281
-8.35372
-8.29567
-8.2285
-8.15215
-8.06669
-7.97206
-7.86832
-7.75551
-7.63379
-7.50338
-7.36449
-7.21753
-7.06285
-6.90096
-6.73227
-6.55739
-6.37688
-6.19148
-6.00188
-5.8088
-5.61278
-5.41437
-5.21408
-5.01233
-4.80949
-4.60577
-4.40143
-4.19648
-3.99104
-3.78491
-3.57808
-3.37015
-3.16096
-2.95005
-2.73715
-2.5217
-2.30342
-2.08178
-1.85648
-1.62714
-1.39356
-1.15543
-0.912502
-0.66451
-0.411406
-0.153147
0.110096
0.378167
0.650737
0.927492
1.20793
1.49158
1.77782
2.06607
2.35563
2.64584
2.93593
3.22518
3.51282
3.79822
4.08071
4.3596
4.6343
4.90438
5.16937
5.42886
5.68252
5.93003
6.17124
6.40605
6.63438
6.85596
7.07067
7.27858
7.47979
7.67436
7.8624
8.04402
8.21927
8.3881
8.55009
8.70604
8.85128
9.00326
9.08719
-7.48662
-7.49031
-7.49837
-7.50824
-7.5174
-7.52552
-7.53325
-7.54085
-7.5485
-7.55627
-7.56396
-7.57121
-7.57762
-7.58299
-7.58739
-7.59092
-7.59358
-7.59535
-7.59619
-7.59609
-7.59509
-7.59324
-7.59057
-7.58716
-7.5831
-7.57851
-7.57352
-7.5683
-7.56301
-7.5579
-7.55325
-7.54936
-7.54655
-7.54514
-7.54542
-7.54763
-7.55192
-7.55841
-7.56715
-7.57816
-7.59145
-7.60705
-7.625
-7.64539
-7.66829
-7.69382
-7.72205
-7.75309
-7.78702
-7.82387
-7.86366
-7.9063
-7.95168
-7.99952
-8.0495
-8.10114
-8.15388
-8.207
-8.25977
-8.31127
-8.36062
-8.4069
-8.44924
-8.48676
-8.51876
-8.5446
-8.56384
-8.57622
-8.58187
-8.5811
-8.57459
-8.56355
-8.54948
-8.5339
-8.51838
-8.50435
-8.49281
-8.4844
-8.47964
-8.47867
-8.48114
-8.48652
-8.49411
-8.50304
-8.51253
-8.52162
-8.52926
-8.53428
-8.53562
-8.53232
-8.52329
-8.50763
-8.48464
-8.4538
-8.41461
-8.36649
-8.30906
-8.24209
-8.16565
-8.07983
-7.9846
-7.88002
-7.76616
-7.64317
-7.51128
-7.37083
-7.2222
-7.06583
-6.90222
-6.73186
-6.55534
-6.37326
-6.18629
-5.99511
-5.8004
-5.60282
-5.40303
-5.20157
-4.99892
-4.79543
-4.59139
-4.38699
-4.18232
-3.97741
-3.77215
-3.5664
-3.35983
-3.15219
-2.94301
-2.73195
-2.5185
-2.30227
-2.08277
-1.85961
-1.63235
-1.40066
-1.16415
-0.922554
-0.675673
-0.423453
-0.165898
0.0968704
0.36467
0.637189
0.914063
1.19481
1.47891
1.76574
2.05469
2.34504
2.63612
2.92715
3.21738
3.50609
3.79257
4.07614
4.35602
4.6316
4.90244
5.16811
5.42819
5.68233
5.93027
6.17184
6.40697
6.63556
6.85724
7.07187
7.27961
7.48058
7.67483
7.86249
8.04368
8.2184
8.38658
8.54771
8.70267
8.84662
8.99748
9.07909
-7.45432
-7.45857
-7.46823
-7.47983
-7.48984
-7.49803
-7.50578
-7.51397
-7.5226
-7.53137
-7.54007
-7.54839
-7.55586
-7.56213
-7.56731
-7.57166
-7.57521
-7.57789
-7.57963
-7.5804
-7.58019
-7.57902
-7.57694
-7.57403
-7.57037
-7.5661
-7.56136
-7.55636
-7.55129
-7.54644
-7.54206
-7.53846
-7.53589
-7.53463
-7.53488
-7.53685
-7.54064
-7.54636
-7.55407
-7.56384
-7.5757
-7.58976
-7.60613
-7.62499
-7.64647
-7.6708
-7.69814
-7.72874
-7.76273
-7.80026
-7.84136
-7.886
-7.93399
-7.98505
-8.0387
-8.09439
-8.15135
-8.20871
-8.26556
-8.32084
-8.37345
-8.42234
-8.46649
-8.50493
-8.53684
-8.56162
-8.57877
-8.58807
-8.58967
-8.58405
-8.57204
-8.55525
-8.53556
-8.51485
-8.49485
-8.47721
-8.46292
-8.45252
-8.44645
-8.44485
-8.44743
-8.45362
-8.46267
-8.4738
-8.4862
-8.49872
-8.51016
-8.51913
-8.52444
-8.52477
-8.51911
-8.5065
-8.48623
-8.45768
-8.42037
-8.37373
-8.31744
-8.25123
-8.17509
-8.08905
-7.99322
-7.88771
-7.77267
-7.64828
-7.51481
-7.37268
-7.22227
-7.06411
-6.89864
-6.72649
-6.5482
-6.36443
-6.17577
-5.98287
-5.78638
-5.58712
-5.38578
-5.18298
-4.97922
-4.77487
-4.57029
-4.36561
-4.16101
-3.95642
-3.75185
-3.54696
-3.34163
-3.13535
-2.92783
-2.71848
-2.50698
-2.29273
-2.07535
-1.85431
-1.62918
-1.39942
-1.16463
-0.924491
-0.678882
-0.427713
-0.171049
0.0910668
0.358406
0.630705
0.907518
1.18841
1.47279
1.76007
2.04954
2.3405
2.63216
2.92379
3.21459
3.50386
3.79084
4.07488
4.35532
4.63153
4.90296
5.16912
5.4296
5.68408
5.9323
6.17412
6.40946
6.63811
6.85974
7.07421
7.28175
7.48246
7.67642
7.86376
8.0446
8.21882
8.38635
8.54662
8.7006
8.8433
8.993
9.07295
-7.42037
-7.42539
-7.43704
-7.45021
-7.46023
-7.46827
-7.47653
-7.48551
-7.49495
-7.50467
-7.51446
-7.524
-7.53269
-7.54011
-7.54636
-7.55177
-7.55638
-7.5601
-7.56279
-7.56443
-7.56497
-7.56444
-7.56287
-7.56035
-7.55698
-7.55295
-7.54839
-7.54357
-7.53867
-7.53399
-7.52975
-7.52622
-7.5236
-7.5221
-7.52189
-7.52311
-7.52584
-7.5302
-7.53625
-7.54409
-7.55383
-7.56566
-7.57981
-7.59652
-7.61605
-7.63879
-7.66506
-7.69519
-7.72942
-7.76791
-7.81066
-7.85755
-7.90834
-7.96268
-8.01998
-8.07955
-8.14057
-8.20205
-8.26298
-8.322
-8.37786
-8.42933
-8.47521
-8.51445
-8.54622
-8.56978
-8.58477
-8.59086
-8.58838
-8.57797
-8.56068
-8.53824
-8.51308
-8.48741
-8.4629
-8.44087
-8.42248
-8.40874
-8.4001
-8.39699
-8.39909
-8.40603
-8.41695
-8.43098
-8.44687
-8.46336
-8.47898
-8.49246
-8.50213
-8.50669
-8.5049
-8.49584
-8.47874
-8.45287
-8.41766
-8.37271
-8.31768
-8.25236
-8.1766
-8.0904
-7.99399
-7.88758
-7.77141
-7.64569
-7.51075
-7.36701
-7.21492
-7.05499
-6.88775
-6.7138
-6.53374
-6.34821