/*--------------------------------*- C++ -*----------------------------------*\
  =========                 |
  \\      /  F ield         | OpenFOAM: The Open Source CFD Toolbox
   \\    /   O peration     | Website:  https://openfoam.org
    \\  /    A nd           | Version:  13
     \\/     M anipulation  |
\*---------------------------------------------------------------------------*/
FoamFile
{
    format      ascii;
    class       surfaceScalarField;
    location    "1300";
    object      phi;
}
// * * * * * * * * * * * * * * * * * * * * * * * * * * * * * * * * * * * * * //

dimensions      [0 3 -1 0 0 0 0];

internalField   nonuniform List<scalar> 
24170
(
3.04103e-06
1.47396e-07
2.87781e-06
1.63306e-07
2.73004e-06
1.4776e-07
2.60262e-06
1.27426e-07
2.48572e-06
1.17016e-07
2.37701e-06
1.08774e-07
2.28734e-06
8.96728e-08
2.21355e-06
7.38197e-08
2.15812e-06
5.53343e-08
2.12018e-06
3.78739e-08
2.08863e-06
3.1548e-08
2.05446e-06
3.41413e-08
2.02326e-06
3.1186e-08
2.00019e-06
2.30324e-08
1.98442e-06
1.57408e-08
1.97518e-06
9.20027e-09
1.9734e-06
1.75178e-09
-7.42729e-09
1.98079e-06
3.49547e-06
6.91814e-08
3.54344e-06
1.15277e-07
3.56831e-06
1.22774e-07
3.56668e-06
1.29014e-07
3.55485e-06
1.28865e-07
3.54072e-06
1.22949e-07
3.52035e-06
1.10059e-07
3.49681e-06
9.74023e-08
3.46889e-06
8.32265e-08
3.43252e-06
7.42358e-08
3.39512e-06
6.89543e-08
3.36367e-06
6.55987e-08
3.33424e-06
6.06223e-08
3.30516e-06
5.21207e-08
3.27802e-06
4.28737e-08
3.25206e-06
3.5152e-08
3.22727e-06
2.65233e-08
1.65081e-08
3.20332e-06
3.67826e-06
5.34544e-08
3.69374e-06
9.99265e-08
3.71217e-06
1.04327e-07
3.73606e-06
1.05085e-07
3.75725e-06
1.07744e-07
3.77281e-06
1.07468e-07
3.7857e-06
9.71907e-08
3.79602e-06
8.71227e-08
3.80242e-06
7.67643e-08
3.80549e-06
7.11133e-08
3.8066e-06
6.78358e-08
3.80781e-06
6.43738e-08
3.8088e-06
5.96234e-08
3.80814e-06
5.27588e-08
3.80581e-06
4.5182e-08
3.80243e-06
3.85125e-08
3.79731e-06
3.16411e-08
2.34643e-08
3.79037e-06
3.93552e-06
4.33285e-08
3.94574e-06
8.96576e-08
3.95438e-06
9.55713e-08
3.96726e-06
9.21393e-08
3.97963e-06
9.54092e-08
3.98724e-06
9.98849e-08
3.99278e-06
9.16678e-08
3.99759e-06
8.23412e-08
4.00118e-06
7.31542e-08
4.00494e-06
6.73467e-08
4.00931e-06
6.34758e-08
4.01416e-06
5.95408e-08
4.01912e-06
5.46723e-08
4.02345e-06
4.84273e-08
4.02698e-06
4.16477e-08
4.03008e-06
3.54145e-08
4.03247e-06
2.92455e-08
2.25042e-08
4.03343e-06
4.21521e-06
3.52602e-08
4.22633e-06
7.86449e-08
4.23437e-06
8.75199e-08
4.23924e-06
8.72219e-08
4.24467e-06
9.00778e-08
4.2522e-06
9.24242e-08
4.25769e-06
8.62125e-08
4.26185e-06
7.82202e-08
4.26463e-06
7.03281e-08
4.26726e-06
6.46768e-08
4.27036e-06
6.03644e-08
4.27389e-06
5.60057e-08
4.27751e-06
5.10469e-08
4.28069e-06
4.52338e-08
4.28327e-06
3.90576e-08
4.28548e-06
3.32074e-08
4.28719e-06
2.75353e-08
2.16302e-08
4.28808e-06
4.51388e-06
3.04744e-08
4.52446e-06
6.80165e-08
4.53268e-06
7.92105e-08
4.53809e-06
8.1765e-08
4.54378e-06
8.43974e-08
4.55079e-06
8.54362e-08
4.55632e-06
8.06888e-08
4.56058e-06
7.39664e-08
4.56368e-06
6.72072e-08
4.5665e-06
6.18545e-08
4.56953e-06
5.73343e-08
4.57277e-06
5.27689e-08
4.57599e-06
4.78348e-08
4.57882e-06
4.24077e-08
4.58111e-06
3.67678e-08
4.58297e-06
3.13509e-08
4.58432e-06
2.61844e-08
2.09948e-08
4.58495e-06
4.83762e-06
2.5578e-08
4.84645e-06
5.92641e-08
4.85307e-06
7.25831e-08
4.85865e-06
7.61692e-08
4.86474e-06
7.83651e-08
4.87143e-06
7.8803e-08
4.87706e-06
7.50922e-08
4.88158e-06
6.94662e-08
4.88515e-06
6.36156e-08
4.88839e-06
5.85806e-08
4.89169e-06
5.40286e-08
4.89501e-06
4.94456e-08
4.8982e-06
4.46381e-08
4.90105e-06
3.95594e-08
4.90341e-06
3.43972e-08
4.90534e-06
2.94294e-08
4.90677e-06
2.47435e-08
2.01907e-08
4.90761e-06
5.18451e-06
2.06568e-08
5.19167e-06
5.20778e-08
5.19831e-06
6.58902e-08
5.20427e-06
7.01804e-08
5.21041e-06
7.22296e-08
5.21679e-06
7.24287e-08
5.22243e-06
6.94685e-08
5.22714e-06
6.47544e-08
5.23108e-06
5.96566e-08
5.23468e-06
5.49682e-08
5.2382e-06
5.05143e-08
5.24161e-06
4.60326e-08
5.24482e-06
4.14295e-08
5.24769e-06
3.6693e-08
5.25013e-06
3.19631e-08
5.25213e-06
2.74255e-08
5.2537e-06
2.31901e-08
1.91461e-08
5.25474e-06
5.55523e-06
1.67744e-08
5.5619e-06
4.54485e-08
5.56878e-06
5.90139e-08
5.57505e-06
6.39056e-08
5.58127e-06
6.60358e-08
5.58755e-06
6.61894e-08
5.59325e-06
6.37984e-08
5.59818e-06
5.9834e-08
5.60245e-06
5.53647e-08
5.60638e-06
5.10266e-08
5.6101e-06
4.67811e-08
5.61363e-06
4.2504e-08
5.61689e-06
3.81635e-08
5.61981e-06
3.37795e-08
5.62231e-06
2.94589e-08
5.6244e-06
2.53381e-08
5.62608e-06
2.15122e-08
1.7931e-08
5.62733e-06
5.95256e-06
1.39957e-08
5.95894e-06
3.90564e-08
5.96594e-06
5.19867e-08
5.97243e-06
5.73944e-08
5.97877e-06
5.96978e-08
5.98504e-06
5.99205e-08
5.99084e-06
5.80044e-08
5.996e-06
5.46778e-08
6.00057e-06
5.07875e-08
6.00477e-06
4.68198e-08
6.0087e-06
4.28494e-08
6.01235e-06
3.8848e-08
6.01571e-06
3.48143e-08
6.0187e-06
3.07914e-08
6.02129e-06
2.68668e-08
6.02348e-06
2.31456e-08
6.02529e-06
1.97131e-08
1.65161e-08
6.02671e-06
6.37898e-06
1.18316e-08
6.38488e-06
3.31787e-08
6.39167e-06
4.5196e-08
6.39821e-06
5.08476e-08
6.40465e-06
5.32811e-08
6.41096e-06
5.3629e-08
6.41687e-06
5.21146e-08
6.42222e-06
4.93328e-08
6.42705e-06
4.595e-08
6.43149e-06
4.23673e-08
6.43562e-06
3.87172e-08
6.43944e-06
3.50283e-08
6.44292e-06
3.13352e-08
6.44603e-06
2.76803e-08
6.44875e-06
2.41473e-08
6.45109e-06
2.08122e-08
6.45306e-06
1.77386e-08
1.49078e-08
6.45468e-06
5.74242e-06
1.02531e-08
5.74691e-06
2.86978e-08
5.75235e-06
3.97469e-08
5.75783e-06
4.53601e-08
5.76329e-06
4.78307e-08
5.76865e-06
4.82877e-08
5.77371e-06
4.7063e-08
5.77837e-06
4.46765e-08
5.78263e-06
4.16821e-08
5.78655e-06
3.84328e-08
5.79019e-06
3.50727e-08
5.79355e-06
3.16776e-08
5.7966e-06
2.82747e-08
5.79935e-06
2.49422e-08
5.80177e-06
2.17231e-08
5.80388e-06
1.87049e-08
5.8057e-06
1.59249e-08
1.33758e-08
5.80724e-06
6.99975e-06
8.65514e-09
7.00443e-06
2.40396e-08
7.0103e-06
3.3869e-08
7.01643e-06
3.92299e-08
7.02264e-06
4.1632e-08
7.02877e-06
4.21728e-08
7.03462e-06
4.12262e-08
7.04006e-06
3.92361e-08
7.04509e-06
3.66493e-08
7.04974e-06
3.3771e-08
7.05405e-06
3.07644e-08
7.05803e-06
2.76997e-08
7.06166e-06
2.46538e-08
7.06493e-06
2.16664e-08
7.06785e-06
1.88146e-08
7.07042e-06
1.61333e-08
7.07268e-06
1.36825e-08
1.14255e-08
7.07464e-06
8.53248e-06
7.03306e-09
8.53721e-06
1.9316e-08
8.54343e-06
2.76475e-08
8.55017e-06
3.25041e-08
8.55709e-06
3.47175e-08
8.564e-06
3.52794e-08
8.57067e-06
3.457e-08
8.57695e-06
3.29532e-08
8.58281e-06
3.07812e-08
8.58827e-06
2.83119e-08
8.59334e-06
2.5699e-08
8.59802e-06
2.30296e-08
8.6023e-06
2.0375e-08
8.60619e-06
1.77885e-08
8.60968e-06
1.53241e-08
8.61281e-06
1.30229e-08
8.61558e-06
1.09111e-08
8.98636e-09
8.61805e-06
1.04009e-05
5.38328e-09
1.04056e-05
1.46156e-08
1.04121e-05
2.11712e-08
1.04193e-05
2.52362e-08
1.0427e-05
2.71079e-08
1.04347e-05
2.76052e-08
1.04422e-05
2.70659e-08
1.04493e-05
2.57824e-08
1.04561e-05
2.40155e-08
1.04624e-05
2.19805e-08
1.04683e-05
1.97976e-08
1.04738e-05
1.75753e-08
1.04788e-05
1.53528e-08
1.04834e-05
1.32117e-08
1.04876e-05
1.11639e-08
1.04913e-05
9.27294e-09
1.04947e-05
7.52657e-09
5.94478e-09
1.04978e-05
1.26785e-05
3.72421e-09
1.26831e-05
9.93855e-09
1.26898e-05
1.44974e-08
1.26976e-05
1.74683e-08
1.27059e-05
1.88126e-08
1.27144e-05
1.91276e-08
1.27228e-05
1.86721e-08
1.27309e-05
1.76594e-08
1.27387e-05
1.62801e-08
1.2746e-05
1.46776e-08
1.27528e-05
1.29695e-08
1.27592e-05
1.12143e-08
1.27651e-05
9.48612e-09
1.27705e-05
7.80727e-09
1.27754e-05
6.23171e-09
1.27799e-05
4.7612e-09
1.2784e-05
3.42981e-09
2.20503e-09
1.27877e-05
1.54549e-05
2.04045e-09
1.54596e-05
5.21203e-09
1.54665e-05
7.57474e-09
1.54749e-05
9.16916e-09
1.54839e-05
9.77209e-09
1.54933e-05
9.76021e-09
1.55027e-05
9.2855e-09
1.55119e-05
8.47592e-09
1.55207e-05
7.44564e-09
1.55291e-05
6.28222e-09
1.5537e-05
5.05766e-09
1.55444e-05
3.8182e-09
1.55513e-05
2.60578e-09
1.55577e-05
1.44511e-09
1.55635e-05
3.61137e-10
1.55689e-05
-6.34634e-10
1.55739e-05
-1.53441e-09
-2.34649e-09
1.55784e-05
1.88394e-05
2.65416e-10
1.88444e-05
2.21537e-10
1.88519e-05
1.46641e-10
1.88609e-05
8.9563e-11
1.8871e-05
-2.66223e-10
1.88815e-05
-7.52764e-10
1.88921e-05
-1.347e-09
1.89026e-05
-2.01393e-09
1.89128e-05
-2.72031e-09
1.89225e-05
-3.44056e-09
1.89318e-05
-4.15326e-09
1.89404e-05
-4.8413e-09
1.89485e-05
-5.49054e-09
1.89561e-05
-6.09004e-09
1.8963e-05
-6.6319e-09
1.89695e-05
-7.10946e-09
1.89755e-05
-7.52502e-09
-7.88099e-09
1.89811e-05
2.29654e-05
-1.79757e-09
2.29712e-05
-5.55047e-09
2.29798e-05
-8.46674e-09
2.29904e-05
-1.04851e-08
2.30021e-05
-1.19978e-08
2.30145e-05
-1.30779e-08
2.3027e-05
-1.38453e-08
2.30393e-05
-1.43778e-08
2.30513e-05
-1.4728e-08
2.30629e-05
-1.49539e-08
2.30738e-05
-1.50838e-08
2.30841e-05
-1.51487e-08
2.30938e-05
-1.51561e-08
2.31028e-05
-1.5123e-08
2.31112e-05
-1.50491e-08
2.31191e-05
-1.49435e-08
2.31263e-05
-1.48087e-08
-1.46513e-08
2.31331e-05
1.68124e-05
-3.51987e-09
1.68171e-05
-1.02272e-08
1.6824e-05
-1.53111e-08
1.68322e-05
-1.8713e-08
1.68412e-05
-2.09946e-08
1.68506e-05
-2.24305e-08
1.686e-05
-2.32631e-08
1.68692e-05
-2.36226e-08
1.68782e-05
-2.36634e-08
1.68867e-05
-2.3472e-08
1.68948e-05
-2.31512e-08
1.69024e-05
-2.27256e-08
1.69094e-05
-2.22574e-08
1.69161e-05
-2.17429e-08
1.69222e-05
-2.12249e-08
1.6928e-05
-2.06852e-08
1.69333e-05
-2.01594e-08
-1.96243e-08
1.69383e-05
1.46364e-05
-5.34529e-09
1.46413e-05
-1.50983e-08
1.46482e-05
-2.21892e-08
1.46562e-05
-2.67082e-08
1.46647e-05
-2.95361e-08
1.46735e-05
-3.11888e-08
1.46822e-05
-3.19597e-08
1.46906e-05
-3.20759e-08
1.46987e-05
-3.17393e-08
1.47064e-05
-3.11274e-08
1.47136e-05
-3.03392e-08
1.47203e-05
-2.94572e-08
1.47266e-05
-2.85231e-08
1.47324e-05
-2.75815e-08
1.47378e-05
-2.66448e-08
1.47429e-05
-2.57338e-08
1.47476e-05
-2.48473e-08
-2.39987e-08
1.47519e-05
1.27422e-05
-7.42915e-09
1.27476e-05
-2.04712e-08
1.27548e-05
-2.93749e-08
1.27628e-05
-3.468e-08
1.27711e-05
-3.78389e-08
1.27795e-05
-3.95554e-08
1.27876e-05
-4.01474e-08
1.27955e-05
-3.99126e-08
1.28029e-05
-3.91495e-08
1.28099e-05
-3.80742e-08
1.28163e-05
-3.68172e-08
1.28224e-05
-3.54737e-08
1.28279e-05
-3.40983e-08
1.28331e-05
-3.27474e-08
1.28379e-05
-3.14313e-08
1.28423e-05
-3.01785e-08
1.28465e-05
-2.89788e-08
-2.78472e-08
1.28503e-05
1.10935e-05
-9.95371e-09
1.10996e-05
-2.66134e-08
1.11072e-05
-3.69803e-08
1.11152e-05
-4.269e-08
1.11234e-05
-4.59852e-08
1.11315e-05
-4.7623e-08
1.11392e-05
-4.79087e-08
1.11466e-05
-4.72402e-08
1.11534e-05
-4.60002e-08
1.11598e-05
-4.44376e-08
1.11657e-05
-4.27005e-08
1.11711e-05
-4.08894e-08
1.11761e-05
-3.90885e-08
1.11807e-05
-3.73359e-08
1.11849e-05
-3.56741e-08
1.11889e-05
-3.40941e-08
1.11925e-05
-3.2616e-08
-3.1219e-08
1.11959e-05
9.65841e-06
-1.31519e-08
9.66556e-06
-3.37558e-08
9.67357e-06
-4.49734e-08
9.68161e-06
-5.07282e-08
9.68965e-06
-5.4019e-08
9.69747e-06
-5.54423e-08
9.70487e-06
-5.52968e-08
9.71176e-06
-5.41261e-08
9.71814e-06
-5.23766e-08
9.72401e-06
-5.03073e-08
9.7294e-06
-4.80807e-08
9.73433e-06
-4.58081e-08
9.73883e-06
-4.35802e-08
9.74295e-06
-4.14515e-08
9.74673e-06
-3.94484e-08
9.75021e-06
-3.7577e-08
9.75344e-06
-3.58346e-08
-3.42124e-08
9.75643e-06
8.40951e-06
-1.73048e-08
8.41789e-06
-4.21347e-08
8.4262e-06
-5.32793e-08
8.43425e-06
-5.87749e-08
8.44223e-06
-6.19857e-08
8.44987e-06
-6.30783e-08
8.45699e-06
-6.24115e-08
8.46355e-06
-6.06866e-08
8.46958e-06
-5.8393e-08
8.47507e-06
-5.57989e-08
8.48006e-06
-5.30659e-08
8.48458e-06
-5.03255e-08
8.48868e-06
-4.76742e-08
8.49241e-06
-4.51726e-08
8.49581e-06
-4.28448e-08
8.49893e-06
-4.06922e-08
8.50181e-06
-3.87043e-08
-3.68685e-08
8.50446e-06
7.32281e-06
-2.28338e-08
7.33265e-06
-5.19619e-08
7.34135e-06
-6.19668e-08
7.34959e-06
-6.70103e-08
7.35768e-06
-7.00719e-08
7.36533e-06
-7.07267e-08
7.37239e-06
-6.94685e-08
7.37886e-06
-6.71483e-08
7.38475e-06
-6.42792e-08
7.39007e-06
-6.11213e-08
7.39487e-06
-5.78587e-08
7.39917e-06
-5.46213e-08
7.40303e-06
-5.15292e-08
7.4065e-06
-4.86378e-08
7.40963e-06
-4.59694e-08
7.41247e-06
-4.35283e-08
7.41507e-06
-4.13041e-08
-3.92825e-08
7.4175e-06
6.37824e-06
-3.10081e-08
6.38974e-06
-6.34521e-08
6.39953e-06
-7.17576e-08
6.4089e-06
-7.63726e-08
6.41797e-06
-7.91383e-08
6.42638e-06
-7.91319e-08
6.43404e-06
-7.71236e-08
6.44097e-06
-7.40735e-08
6.44719e-06
-7.04945e-08
6.45272e-06
-6.6647e-08
6.45759e-06
-6.27154e-08
6.46183e-06
-5.88688e-08
6.46552e-06
-5.52157e-08
6.46872e-06
-5.18343e-08
6.47149e-06
-4.87359e-08
6.4739e-06
-4.59388e-08
6.47605e-06
-4.34474e-08
-4.11983e-08
6.47798e-06
5.56115e-06
-4.66897e-08
5.57702e-06
-7.93134e-08
5.59143e-06
-8.61641e-08
5.60545e-06
-9.03811e-08
5.61835e-06
-9.20402e-08
5.62963e-06
-9.04068e-08
5.63924e-06
-8.67254e-08
5.64722e-06
-8.20511e-08
5.65363e-06
-7.69089e-08
5.65858e-06
-7.15876e-08
5.66218e-06
-6.63041e-08
5.66454e-06
-6.12293e-08
5.66582e-06
-5.64953e-08
5.6662e-06
-5.22143e-08
5.66587e-06
-4.84025e-08
5.66503e-06
-4.50993e-08
5.66391e-06
-4.23109e-08
-4.01828e-08
5.6629e-06
4.87858e-06
-9.76608e-08
4.9138e-06
-1.14528e-07
4.94038e-06
-1.12727e-07
4.95774e-06
-1.07739e-07
4.96623e-06
-1.00523e-07
4.96737e-06
-9.15431e-08
4.96281e-06
-8.21624e-08
4.95385e-06
-7.30872e-08
4.94155e-06
-6.46044e-08
4.92678e-06
-5.68053e-08
4.9102e-06
-4.9721e-08
4.89237e-06
-4.33953e-08
4.87373e-06
-3.7852e-08
4.85462e-06
-3.3106e-08
4.8355e-06
-2.92815e-08
4.81677e-06
-2.63629e-08
4.79859e-06
-2.41252e-08
-2.28587e-08
4.78128e-06
4.10502e-06
3.99049e-06
3.87776e-06
3.77002e-06
3.6695e-06
3.57796e-06
3.4958e-06
3.42271e-06
3.35811e-06
3.3013e-06
3.25158e-06
3.20819e-06
3.17034e-06
3.13723e-06
3.10795e-06
3.08159e-06
3.05747e-06
3.03461e-06
-7.33179e-09
7.38742e-09
-1.97682e-08
1.25497e-08
-3.33804e-08
1.37045e-08
-4.47107e-08
1.14357e-08
-4.89311e-08
4.30059e-09
-4.07021e-08
-8.1278e-09
-1.83466e-08
-2.2296e-08
1.61057e-08
-3.43499e-08
5.85753e-08
-4.2433e-08
1.04558e-07
-4.5898e-08
1.49971e-07
-4.53938e-08
1.92173e-07
-4.21274e-08
2.29248e-07
-3.70623e-08
2.60209e-07
-3.08915e-08
2.843e-07
-2.40821e-08
3.01257e-07
-1.68924e-08
3.10714e-07
-9.45068e-09
3.12473e-07
-1.70113e-09
3.06239e-07
6.24011e-09
2.92274e-07
1.40156e-08
2.71045e-07
2.12312e-08
2.43553e-07
2.75391e-08
2.10987e-07
3.25653e-08
1.75128e-07
3.59071e-08
1.37966e-07
3.71633e-08
1.01945e-07
3.60718e-08
6.93136e-08
3.263e-08
4.21183e-08
2.72439e-08
2.14035e-08
2.07211e-08
7.38755e-09
1.40594e-08
-6.27591e-10
8.02294e-09
-3.29499e-09
2.70716e-09
-7.71781e-10
-2.51253e-09
7.91245e-09
-8.63987e-09
2.41952e-08
-1.62776e-08
4.87889e-08
-2.45395e-08
7.93475e-08
-3.05498e-08
1.10999e-07
-3.15886e-08
1.38408e-07
-2.73863e-08
1.57907e-07
-1.94298e-08
1.67532e-07
-9.58006e-09
1.67825e-07
-2.14668e-10
1.61563e-07
6.33537e-09
1.52674e-07
8.9768e-09
1.45534e-07
7.24288e-09
1.43402e-07
2.23779e-09
1.42005e-07
1.52828e-09
1.30686e-07
1.14211e-08
1.02548e-07
2.83007e-08
5.08748e-08
5.17908e-08
-2.65467e-08
7.76243e-08
-1.24979e-07
9.85377e-08
-2.39618e-07
1.14792e-07
-3.66602e-07
1.27077e-07
-5.02194e-07
1.35732e-07
-6.43465e-07
1.41364e-07
-7.8664e-07
1.43306e-07
-9.26752e-07
1.40206e-07
-1.06106e-06
1.34425e-07
-1.1886e-06
1.27629e-07
-1.30744e-06
1.18938e-07
-1.41702e-06
1.09664e-07
-1.51788e-06
1.00926e-07
-1.60968e-06
9.18794e-08
-1.69299e-06
8.33497e-08
-1.76914e-06
7.62279e-08
-1.83923e-06
7.01162e-08
-1.90371e-06
6.45539e-08
-1.96339e-06
5.96982e-08
-2.01885e-06
5.55233e-08
-2.07075e-06
5.1905e-08
-2.11949e-06
4.87956e-08
-2.16557e-06
4.60929e-08
-2.20925e-06
4.37554e-08
-2.25094e-06
4.17009e-08
-2.29074e-06
3.99059e-08
-2.32899e-06
3.82962e-08
-2.36572e-06
3.68574e-08
-2.4012e-06
3.55281e-08
-2.43538e-06
3.43122e-08
-2.46847e-06
3.31543e-08
-2.50039e-06
3.20608e-08
-2.53131e-06
3.09856e-08
-2.56112e-06
2.9942e-08
-2.58993e-06
2.88884e-08
-2.61763e-06
2.78289e-08
-2.64426e-06
2.67304e-08
-2.66974e-06
2.55986e-08
-2.69405e-06
2.43893e-08
-2.71704e-06
2.31534e-08
-2.73871e-06
2.18214e-08
-2.75894e-06
2.04448e-08
-2.77774e-06
1.89714e-08
-2.79497e-06
1.74233e-08
-2.81059e-06
1.57601e-08
-2.82443e-06
1.40074e-08
-2.83642e-06
1.21328e-08
-2.84643e-06
1.0156e-08
-2.85435e-06
8.05973e-09
-2.86008e-06
5.86092e-09
-2.86355e-06
3.58834e-09
-2.86479e-06
1.31857e-09
-2.864e-06
-7.29889e-10
-2.86146e-06
-2.53492e-09
-2.85723e-06
-4.21925e-09
-2.85138e-06
-5.85804e-09
-2.84392e-06
-7.4502e-09
-2.83491e-06
-9.00625e-09
-2.82437e-06
-1.05174e-08
-2.81237e-06
-1.19761e-08
-2.79895e-06
-1.33898e-08
-2.78416e-06
-1.47361e-08
-2.76809e-06
-1.60409e-08
-2.75077e-06
-1.72685e-08
-2.7323e-06
-1.84576e-08
-2.71269e-06
-1.95587e-08
-2.69207e-06
-2.06143e-08
-2.67048e-06
-2.15815e-08
-2.64804e-06
-2.25149e-08
-2.62472e-06
-2.33863e-08
-2.60057e-06
-2.42327e-08
-2.57558e-06
-2.50269e-08
-2.54984e-06
-2.58051e-08
-2.52336e-06
-2.65441e-08
-2.4962e-06
-2.72857e-08
-2.46833e-06
-2.80142e-08
-2.43977e-06
-2.87499e-08
-2.41048e-06
-2.95013e-08
-2.38042e-06
-3.02634e-08
-2.34959e-06
-3.10771e-08
-2.31787e-06
-3.19055e-08
-2.28531e-06
-3.27948e-08
-2.25177e-06
-3.36779e-08
-2.21732e-06
-3.46467e-08
-2.18178e-06
-3.55998e-08
-2.14527e-06
-3.66361e-08
-2.10764e-06
-3.76306e-08
-2.06899e-06
-3.86648e-08
-2.02921e-06
-3.96519e-08
-1.9883e-06
-4.07329e-08
-1.94613e-06
-4.1958e-08
-1.90266e-06
-4.32718e-08
-1.85794e-06
-4.45634e-08
-1.81195e-06
-4.58613e-08
-1.76466e-06
-4.7171e-08
-1.7161e-06
-4.84639e-08
-1.66629e-06
-4.97452e-08
-1.61526e-06
-5.09901e-08
-1.56303e-06
-5.22072e-08
-1.50969e-06
-5.33673e-08
-1.45525e-06
-5.44815e-08
-1.39983e-06
-5.55176e-08
-1.34344e-06
-5.64887e-08
-1.28622e-06
-5.73644e-08
-1.22822e-06
-5.81545e-08
-1.16956e-06
-5.88532e-08
-1.11033e-06
-5.94275e-08
-1.05063e-06
-5.99231e-08
-9.90551e-07
-6.03e-08
-9.30215e-07
-6.05846e-08
-8.69676e-07
-6.07739e-08
-8.09058e-07
-6.0873e-08
-7.48403e-07
-6.08937e-08
-6.87815e-07
-6.08365e-08
-6.2733e-07
-6.07152e-08
-5.67029e-07
-6.05295e-08
-5.06951e-07
-6.02889e-08
-4.47155e-07
-5.99941e-08
-3.87697e-07
-5.96414e-08
-3.28616e-07
-5.92411e-08
-2.69979e-07
-5.87877e-08
-2.11852e-07
-5.82493e-08
-1.54325e-07
-5.76454e-08
-9.74427e-08
-5.69658e-08
-4.14626e-08
-5.60618e-08
1.32237e-08
-5.47228e-08
6.59211e-08
-5.27411e-08
1.1473e-07
-4.88273e-08
1.58645e-07
-4.39517e-08
-1.79957e-08
1.76644e-07
-3.11977e-09
1.06128e-08
-8.31512e-09
1.79591e-08
-1.01577e-08
1.57469e-08
-2.16817e-09
3.66505e-09
2.00295e-08
-1.77644e-08
5.60096e-08
-4.40004e-08
1.01383e-07
-6.762e-08
1.50691e-07
-8.35952e-08
1.99174e-07
-9.08861e-08
2.44091e-07
-9.07631e-08
2.84016e-07
-8.5296e-08
3.18403e-07
-7.64658e-08
3.47119e-07
-6.57584e-08
3.70413e-07
-5.41395e-08
3.88536e-07
-4.21867e-08
4.01896e-07
-3.02093e-08
4.10824e-07
-1.83632e-08
4.15884e-07
-6.7226e-09
4.17377e-07
4.75983e-09
4.15239e-07
1.61877e-08
4.08964e-07
2.75148e-08
3.98028e-07
3.85031e-08
3.81867e-07
4.8735e-08
3.60198e-07
5.76041e-08
3.33012e-07
6.43567e-08
3.00926e-07
6.81871e-08
2.65154e-07
6.84114e-08
2.27729e-07
6.47039e-08
1.91226e-07
5.72392e-08
1.58678e-07
4.66471e-08
1.32974e-07
3.37472e-08
1.16531e-07
1.91979e-08
1.10717e-07
3.3249e-09
1.15592e-07
-1.34626e-08
1.30074e-07
-3.07425e-08
1.50608e-07
-4.50202e-08
1.71103e-07
-5.10234e-08
1.86414e-07
-4.68408e-08
1.9392e-07
-3.48553e-08
1.93407e-07
-1.8842e-08
1.85476e-07
-1.58425e-09
1.71705e-07
1.36536e-08
1.54041e-07
2.40978e-08
1.29264e-07
3.38737e-08
8.7968e-08
4.86784e-08
2.00972e-08
7.0254e-08
-7.98486e-08
1.0161e-07
-2.06806e-07
1.38462e-07
-3.51462e-07
1.7303e-07
-5.04168e-07
2.0455e-07
-6.58723e-07
2.32232e-07
-8.13512e-07
2.5337e-07
-9.65946e-07
2.67283e-07
-1.11302e-06
2.742e-07
-1.25148e-06
2.7426e-07
-1.37831e-06
2.68255e-07
-1.49211e-06
2.57173e-07
-1.59368e-06
2.41834e-07
-1.68347e-06
2.24282e-07
-1.76216e-06
2.06385e-07
-1.83174e-06
1.8858e-07
-1.89368e-06
1.71656e-07
-1.94893e-06
1.56226e-07
-1.99916e-06
1.42155e-07
-2.0454e-06
1.29631e-07
-2.08803e-06
1.189e-07
-2.12759e-06
1.09711e-07
-2.16475e-06
1.01756e-07
-2.19992e-06
9.4884e-08
-2.23332e-06
8.89577e-08
-2.26522e-06
8.38262e-08
-2.29576e-06
7.93624e-08
-2.3251e-06
7.54471e-08
-2.3533e-06
7.19931e-08
-2.38048e-06
6.89127e-08
-2.40666e-06
6.61422e-08
-2.43194e-06
6.36148e-08
-2.4563e-06
6.12862e-08
-2.47982e-06
5.91047e-08
-2.50247e-06
5.70415e-08
-2.52431e-06
5.50518e-08
-2.54529e-06
5.31153e-08
-2.56543e-06
5.11956e-08
-2.58469e-06
4.92775e-08
-2.60306e-06
4.73275e-08
-2.62048e-06
4.53335e-08
-2.63693e-06
4.32688e-08
-2.65239e-06
4.11101e-08
-2.66676e-06
3.88671e-08
-2.68002e-06
3.64932e-08
-2.69207e-06
3.40244e-08
-2.70292e-06
3.14367e-08
-2.71251e-06
2.87112e-08
-2.72082e-06
2.58616e-08
-2.72781e-06
2.28698e-08
-2.73345e-06
1.97614e-08
-2.73774e-06
1.6531e-08
-2.7407e-06
1.32156e-08
-2.74237e-06
9.82788e-09
-2.74282e-06
6.41501e-09
-2.74218e-06
3.0119e-09
-2.74045e-06
-3.44638e-10
-2.7375e-06
-3.66361e-09
-2.73305e-06
-6.97125e-09
-2.72703e-06
-1.02376e-08
-2.71944e-06
-1.34574e-08
-2.71027e-06
-1.66102e-08
-2.69958e-06
-1.96946e-08
-2.68739e-06
-2.26898e-08
-2.67376e-06
-2.55921e-08
-2.65873e-06
-2.8388e-08
-2.64237e-06
-3.10716e-08
-2.62473e-06
-3.36398e-08
-2.6059e-06
-3.60848e-08
-2.58592e-06
-3.84097e-08
-2.56486e-06
-4.06e-08
-2.5428e-06
-4.26631e-08
-2.5198e-06
-4.46019e-08
-2.49593e-06
-4.6438e-08
-2.4712e-06
-4.81752e-08
-2.44565e-06
-4.98377e-08
-2.4193e-06
-5.14169e-08
-2.39219e-06
-5.29472e-08
-2.36436e-06
-5.44249e-08
-2.33584e-06
-5.58942e-08
-2.30661e-06
-5.73488e-08
-2.27667e-06
-5.88253e-08
-2.24599e-06
-6.03235e-08
-2.21454e-06
-6.18701e-08
-2.18229e-06
-6.34755e-08
-2.1492e-06
-6.51482e-08
-2.11522e-06
-6.68992e-08
-2.0803e-06
-6.87202e-08
-2.04439e-06
-7.06388e-08
-2.00744e-06
-7.26227e-08
-1.96941e-06
-7.47037e-08
-1.93024e-06
-7.68262e-08
-1.88986e-06
-7.90057e-08
-1.84818e-06
-8.12384e-08
-1.80519e-06
-8.35666e-08
-1.76095e-06
-8.6033e-08
-1.71549e-06
-8.85826e-08
-1.66876e-06
-9.11749e-08
-1.62074e-06
-9.37761e-08
-1.57144e-06
-9.63859e-08
-1.52086e-06
-9.89657e-08
-1.46905e-06
-1.015e-07
-1.41605e-06
-1.0397e-07
-1.36189e-06
-1.0635e-07
-1.30666e-06
-1.08634e-07
-1.25039e-06
-1.10785e-07
-1.1932e-06
-1.12804e-07
-1.13513e-06
-1.14649e-07
-1.07631e-06
-1.16334e-07
-1.0168e-06
-1.17807e-07
-9.56727e-07
-1.19115e-07
-8.96167e-07
-1.2017e-07
-8.35258e-07
-1.21057e-07
-7.74064e-07
-1.21705e-07
-7.12719e-07
-1.22176e-07
-6.51287e-07
-1.22434e-07
-5.89883e-07
-1.22532e-07
-5.28562e-07
-1.22449e-07
-4.67414e-07
-1.22234e-07
-4.06483e-07
-1.21873e-07
-3.45839e-07
-1.21405e-07
-2.85519e-07
-1.20816e-07
-2.25576e-07
-1.20137e-07
-1.66056e-07
-1.1934e-07
-1.06994e-07
-1.18461e-07
-4.84133e-08
-1.17508e-07
9.69292e-09
-1.16467e-07
6.72471e-08
-1.15295e-07
1.24091e-07
-1.13872e-07
1.80009e-07
-1.1203e-07
2.3475e-07
-1.09478e-07
2.87661e-07
-1.05662e-07
3.38289e-07
-9.94385e-08
3.83604e-07
-8.9252e-08
-6.05784e-08
4.26237e-07
4.07141e-10
1.0309e-08
4.25646e-09
1.43268e-08
1.91734e-08
9.91908e-10
5.17463e-08
-2.87924e-08
1.00406e-07
-6.63658e-08
1.55821e-07
-9.93616e-08
2.08778e-07
-1.20546e-07
2.54334e-07
-1.2911e-07
2.91167e-07
-1.27696e-07
3.20107e-07
-1.19664e-07
3.42613e-07
-1.07781e-07
3.60116e-07
-9.39313e-08
3.73637e-07
-7.92588e-08
3.83927e-07
-6.43948e-08
3.91429e-07
-4.967e-08
3.965e-07
-3.52463e-08
3.99353e-07
-2.12009e-08
4.00239e-07
-7.57807e-09
3.99392e-07
5.61862e-09
3.97174e-07
1.84302e-08
3.93808e-07
3.08894e-08
3.89357e-07
4.29765e-08
3.83539e-07
5.45586e-08
3.75834e-07
6.53289e-08
3.65435e-07
7.47628e-08
3.51546e-07
8.20962e-08
3.33591e-07
8.6376e-08
3.11707e-07
8.66106e-08
2.86943e-07
8.20195e-08
2.61372e-07
7.22442e-08
2.37635e-07
5.75047e-08
2.18327e-07
3.854e-08
2.0507e-07
1.66049e-08
1.98409e-07
-6.76204e-09
1.958e-07
-2.8111e-08
1.91065e-07
-4.02435e-08
1.79746e-07
-3.96783e-08
1.61182e-07
-2.82274e-08
1.35844e-07
-9.47663e-09
1.04292e-07
1.27793e-08
6.48924e-08
3.78762e-08
1.26458e-08
6.59904e-08
-5.92258e-08
9.60468e-08
-1.55659e-07
1.3037e-07
-2.7659e-07
1.69658e-07
-4.17639e-07
2.11341e-07
-5.68602e-07
2.52605e-07
-7.20367e-07
2.90253e-07
-8.68675e-07
3.21364e-07
-1.00894e-06
3.44842e-07
-1.13722e-06
3.60537e-07
-1.25199e-06
3.68167e-07
-1.35281e-06
3.68132e-07
-1.43975e-06
3.61183e-07
-1.51385e-06
3.48398e-07
-1.57679e-06
3.31234e-07
-1.63074e-06
3.11174e-07
-1.67834e-06
2.89481e-07
-1.72144e-06
2.67437e-07
-1.76114e-06
2.46127e-07
-1.79854e-06
2.26026e-07
-1.83435e-06
2.07503e-07
-1.86882e-06
1.90739e-07
-1.90237e-06
1.75733e-07
-1.93513e-06
1.6243e-07
-1.96699e-06
1.50788e-07
-1.99789e-06
1.40637e-07
-2.02787e-06
1.31759e-07
-2.05695e-06
1.23988e-07
-2.08515e-06
1.17171e-07
-2.11248e-06
1.11167e-07
-2.13895e-06
1.05855e-07
-2.16462e-06
1.01126e-07
-2.18949e-06
9.68856e-08
-2.21361e-06
9.3055e-08
-2.237e-06
8.95648e-08
-2.2597e-06
8.63479e-08
-2.28173e-06
8.33512e-08
-2.30311e-06
8.05223e-08
-2.32384e-06
7.78178e-08
-2.34394e-06
7.51919e-08
-2.36338e-06
7.2608e-08
-2.38217e-06
7.0027e-08
-2.40026e-06
6.74184e-08
-2.41763e-06
6.47481e-08
-2.43422e-06
6.19895e-08
-2.45002e-06
5.91121e-08
-2.46495e-06
5.61042e-08
-2.47897e-06
5.29307e-08
-2.492e-06
4.96078e-08
-2.50396e-06
4.61021e-08
-2.51485e-06
4.24122e-08
-2.52458e-06
3.85531e-08
-2.53314e-06
3.45001e-08
-2.54046e-06
3.0281e-08
-2.54653e-06
2.58914e-08
-2.55129e-06
2.13659e-08
-2.55473e-06
1.67206e-08
-2.55682e-06
1.19915e-08
-2.55756e-06
7.20908e-09
-2.55691e-06
2.39598e-09
-2.55479e-06
-2.42817e-09
-2.55118e-06
-7.2737e-09
-2.54602e-06
-1.21202e-08
-2.53933e-06
-1.69413e-08
-2.53109e-06
-2.17e-08
-2.52132e-06
-2.63761e-08
-2.51006e-06
-3.09458e-08
-2.49735e-06
-3.53884e-08
-2.48323e-06
-3.96898e-08
-2.46776e-06
-4.3829e-08
-2.45101e-06
-4.78017e-08
-2.43302e-06
-5.15896e-08
-2.41389e-06
-5.51967e-08
-2.39366e-06
-5.86076e-08
-2.37241e-06
-6.18291e-08
-2.35021e-06
-6.48569e-08
-2.32711e-06
-6.77142e-08
-2.30317e-06
-7.04102e-08
-2.27843e-06
-7.29659e-08
-2.25289e-06
-7.53951e-08
-2.22661e-06
-7.77179e-08
-2.19961e-06
-7.9957e-08
-2.17193e-06
-8.21451e-08
-2.14357e-06
-8.43098e-08
-2.11452e-06
-8.64754e-08
-2.08478e-06
-8.86705e-08
-2.0543e-06
-9.09135e-08
-2.02305e-06
-9.32338e-08
-1.991e-06
-9.56449e-08
-1.9581e-06
-9.81704e-08
-1.92429e-06
-1.00811e-07
-1.88954e-06
-1.03585e-07
-1.85375e-06
-1.06492e-07
-1.81692e-06
-1.09533e-07
-1.77895e-06
-1.12702e-07
-1.73982e-06
-1.15976e-07
-1.69945e-06
-1.19344e-07
-1.6578e-06
-1.22818e-07
-1.61486e-06
-1.26407e-07
-1.57067e-06
-1.3013e-07
-1.52522e-06
-1.33962e-07
-1.4785e-06
-1.37852e-07
-1.43049e-06
-1.41759e-07
-1.3812e-06
-1.45651e-07
-1.33065e-06
-1.49493e-07
-1.2789e-06
-1.53246e-07
-1.22598e-06
-1.56887e-07
-1.17196e-06
-1.60378e-07
-1.1169e-06
-1.63702e-07
-1.06089e-06
-1.66819e-07
-1.00399e-06
-1.69716e-07
-9.46319e-07
-1.72351e-07
-8.87953e-07
-1.74724e-07
-8.29005e-07
-1.7679e-07
-7.69569e-07
-1.78576e-07
-7.0975e-07
-1.80024e-07
-6.49656e-07
-1.81175e-07
-5.89384e-07
-1.82009e-07
-5.29034e-07
-1.82546e-07
-4.68698e-07
-1.82797e-07
-4.08458e-07
-1.82786e-07
-3.48394e-07
-1.82534e-07
-2.88566e-07
-1.8207e-07
-2.29032e-07
-1.81421e-07
-1.69836e-07
-1.80603e-07
-1.11024e-07
-1.79636e-07
-5.26195e-08
-1.7854e-07
5.36235e-09
-1.77325e-07
6.28968e-08
-1.75991e-07
1.19922e-07
-1.74534e-07
1.76396e-07
-1.72937e-07
2.32264e-07
-1.71168e-07
2.87484e-07
-1.69093e-07
3.41964e-07
-1.66521e-07
3.95537e-07
-1.63059e-07
4.47893e-07
-1.58037e-07
4.98725e-07
-1.5029e-07
5.47234e-07
-1.3779e-07
-1.10202e-07
5.96832e-07
2.83863e-10
1.01338e-08
1.34251e-08
1.38023e-09
5.21361e-08
-3.76163e-08
1.10955e-07
-8.75439e-08
1.73653e-07
-1.29026e-07
2.27172e-07
-1.5284e-07
2.66686e-07
-1.60035e-07
2.9343e-07
-1.55818e-07
3.10846e-07
-1.45089e-07
3.22313e-07
-1.31097e-07
3.30177e-07
-1.15624e-07
3.35842e-07
-9.95639e-08
3.39968e-07
-8.33644e-08
3.42863e-07
-6.72587e-08
3.44595e-07
-5.13829e-08
3.45208e-07
-3.58298e-08
3.44694e-07
-2.06714e-08
3.43113e-07
-5.97059e-09
3.40506e-07
8.23631e-09
3.37043e-07
2.19186e-08
3.329e-07
3.50383e-08
3.28335e-07
4.75616e-08
3.23484e-07
5.94139e-08
3.18401e-07
7.04297e-08
3.12848e-07
8.03202e-08
3.06388e-07
8.85738e-08
2.98332e-07
9.44413e-08
2.88019e-07
9.69448e-08
2.75065e-07
9.49897e-08
2.59679e-07
8.76552e-08
2.42715e-07
7.44908e-08
2.25473e-07
5.58104e-08
2.08998e-07
3.31048e-08
1.91733e-07
1.05418e-08
1.68026e-07
-4.3846e-09
1.34499e-07
-6.67227e-09
9.19819e-08
2.86329e-09
4.12159e-08
2.25912e-08
-1.97323e-08
5.15069e-08
-9.43967e-08
8.74917e-08
-1.85098e-07
1.28613e-07
-2.92294e-07
1.73219e-07
-4.15432e-07
2.19212e-07
-5.501e-07
2.65059e-07
-6.89458e-07
3.09036e-07
-8.27083e-07
3.48981e-07
-9.56838e-07
3.82376e-07
-1.074e-06
4.07426e-07
-1.17667e-06
4.24054e-07
-1.26433e-06
4.32507e-07
-1.33714e-06
4.33365e-07
-1.39653e-06
4.2758e-07
-1.44457e-06
4.16191e-07
-1.48368e-06
4.00322e-07
-1.51644e-06
3.81185e-07
-1.54515e-06
3.59978e-07
-1.57169e-06
3.3775e-07
-1.5975e-06
3.15331e-07
-1.62345e-06
2.9342e-07
-1.64984e-06
2.72554e-07
-1.67681e-06
2.5303e-07
-1.7043e-06
2.35028e-07
-1.73215e-06
2.18612e-07
-1.76016e-06
2.03778e-07
-1.78818e-06
1.90466e-07
-1.81595e-06
1.7859e-07
-1.84332e-06
1.68026e-07
-1.87018e-06
1.58629e-07
-1.89644e-06
1.50264e-07
-1.92206e-06
1.42805e-07
-1.94702e-06
1.36138e-07
-1.97131e-06
1.30156e-07
-1.99495e-06
1.24765e-07
-2.01793e-06
1.19886e-07
-2.0403e-06
1.15439e-07
-2.06208e-06
1.11358e-07
-2.08328e-06
1.07577e-07
-2.10394e-06
1.04037e-07
-2.12407e-06
1.0068e-07
-2.14368e-06
9.74533e-08
-2.16276e-06
9.43038e-08
-2.18131e-06
9.11831e-08
-2.19929e-06
8.80443e-08
-2.21668e-06
8.48447e-08
-2.23344e-06
8.15435e-08
-2.24952e-06
7.81058e-08
-2.26486e-06
7.45002e-08
-2.27941e-06
7.06956e-08
-2.2931e-06
6.66878e-08
-2.30587e-06
6.24173e-08
-2.31763e-06
5.79356e-08
-2.32833e-06
5.31929e-08
-2.33793e-06
4.82171e-08
-2.34635e-06
4.29909e-08
-2.35357e-06
3.75457e-08
-2.35951e-06
3.18804e-08
-2.36413e-06
2.60367e-08
-2.3674e-06
2.00303e-08
-2.36926e-06
1.39022e-08
-2.3697e-06
7.67951e-09
-2.36867e-06
1.38595e-09
-2.36613e-06
-4.952e-09
-2.36208e-06
-1.13272e-08
-2.35651e-06
-1.76982e-08
-2.34942e-06
-2.40396e-08
-2.34081e-06
-3.03013e-08
-2.33073e-06
-3.64596e-08
-2.31919e-06
-4.24755e-08
-2.30624e-06
-4.83262e-08
-2.29192e-06
-5.39856e-08
-2.2763e-06
-5.94303e-08
-2.25943e-06
-6.46487e-08
-2.24138e-06
-6.96186e-08
-2.22221e-06
-7.43421e-08
-2.202e-06
-7.88001e-08
-2.18081e-06
-8.30067e-08
-2.15871e-06
-8.69627e-08
-2.13575e-06
-9.06954e-08
-2.11198e-06