/*--------------------------------*- C++ -*----------------------------------*\
  =========                 |
  \\      /  F ield         | OpenFOAM: The Open Source CFD Toolbox
   \\    /   O peration     | Website:  https://openfoam.org
    \\  /    A nd           | Version:  13
     \\/     M anipulation  |
\*---------------------------------------------------------------------------*/
FoamFile
{
    format      ascii;
    class       volVectorField;
    location    "1300";
    object      U;
}
// * * * * * * * * * * * * * * * * * * * * * * * * * * * * * * * * * * * * * //

dimensions      [0 1 -1 0 0 0 0];

internalField   nonuniform List<vector> 
12225
(
(9.75145 0.0527308 0)
(9.27926 0.108657 0)
(8.78605 0.110893 0)
(8.36216 0.0868563 0)
(7.97722 0.0945214 0)
(7.61333 0.0951045 0)
(7.30474 0.0740965 0)
(7.0476 0.0568476 0)
(6.83871 0.0329625 0)
(6.69908 0.017166 0)
(6.60805 0.00376444 0)
(6.50012 0.0125623 0)
(6.38679 0.0262701 0)
(6.30523 0.0171293 0)
(6.24348 0.00325273 0)
(6.20427 -0.00321864 0)
(6.1865 -0.011401 0)
(6.19153 -0.0103941 0)
(10.1059 0.0553054 0)
(10.3119 0.0925338 0)
(10.4256 0.0986475 0)
(10.4668 0.107543 0)
(10.4133 0.0947795 0)
(10.3867 0.084131 0)
(10.3382 0.0793774 0)
(10.2663 0.0745815 0)
(10.1971 0.0672219 0)
(10.1073 0.0580321 0)
(9.98716 0.0560476 0)
(9.88778 0.0533122 0)
(9.80144 0.0458621 0)
(9.71346 0.0413244 0)
(9.6311 0.0374408 0)
(9.55572 0.031902 0)
(9.47783 0.0240492 0)
(9.40989 0.0099304 0)
(10.0091 0.0454261 0)
(10.0568 0.0712612 0)
(10.1097 0.0721948 0)
(10.1649 0.0652042 0)
(10.2371 0.0801226 0)
(10.2799 0.0969957 0)
(10.3201 0.091879 0)
(10.3515 0.0858853 0)
(10.3746 0.0793173 0)
(10.3892 0.0758669 0)
(10.3934 0.0739869 0)
(10.3951 0.0738213 0)
(10.3991 0.071985 0)
(10.3993 0.0657658 0)
(10.3952 0.0580925 0)
(10.3873 0.0510832 0)
(10.3761 0.0434098 0)
(10.3595 0.0328838 0)
(10.0056 0.0303292 0)
(10.0351 0.058443 0)
(10.0645 0.0655891 0)
(10.0819 0.0748666 0)
(10.1335 0.0780834 0)
(10.147 0.0757831 0)
(10.1644 0.0717808 0)
(10.1778 0.0666526 0)
(10.1882 0.0610216 0)
(10.1977 0.0592729 0)
(10.2085 0.0593795 0)
(10.2203 0.0580757 0)
(10.2326 0.0550292 0)
(10.2444 0.050238 0)
(10.2543 0.044583 0)
(10.2628 0.0393502 0)
(10.2699 0.0334725 0)
(10.2751 0.026007 0)
(10.0088 0.0230614 0)
(10.0294 0.0547918 0)
(10.0556 0.0640888 0)
(10.0721 0.0660337 0)
(10.0832 0.0700409 0)
(10.098 0.0751974 0)
(10.1138 0.072252 0)
(10.1254 0.0679103 0)
(10.1335 0.0632608 0)
(10.1398 0.0607504 0)
(10.1467 0.0595723 0)
(10.1547 0.0581084 0)
(10.1631 0.0555431 0)
(10.1712 0.0514221 0)
(10.178 0.0463029 0)
(10.1836 0.0410835 0)
(10.1884 0.0354563 0)
(10.1918 0.028866 0)
(10.0045 0.0210443 0)
(10.0191 0.0469569 0)
(10.0434 0.0560656 0)
(10.0595 0.059574 0)
(10.071 0.0640879 0)
(10.0846 0.0682271 0)
(10.0987 0.0668639 0)
(10.1097 0.0636495 0)
(10.1178 0.0600022 0)
(10.1243 0.0575603 0)
(10.1308 0.0558147 0)
(10.1378 0.0537525 0)
(10.1449 0.0508787 0)
(10.1516 0.046923 0)
(10.1572 0.0422035 0)
(10.1618 0.0373286 0)
(10.1655 0.0322476 0)
(10.1677 0.0265576 0)
(10.0006 0.0186271 0)
(10.0195 0.0425184 0)
(10.0348 0.0523348 0)
(10.048 0.0567469 0)
(10.0604 0.0608767 0)
(10.0731 0.0639042 0)
(10.086 0.0631044 0)
(10.0966 0.0604976 0)
(10.105 0.0574551 0)
(10.1119 0.0550128 0)
(10.1187 0.0529386 0)
(10.1256 0.0505901 0)
(10.1323 0.0476587 0)
(10.1385 0.0439844 0)
(10.1439 0.0397746 0)
(10.1483 0.035382 0)
(10.1519 0.0308746 0)
(10.1542 0.0260354 0)
(10.0009 0.0139904 0)
(10.0164 0.0363275 0)
(10.0291 0.0472193 0)
(10.042 0.0519649 0)
(10.0539 0.0557247 0)
(10.0656 0.0582701 0)
(10.0773 0.0580514 0)
(10.0874 0.0561845 0)
(10.0957 0.0537373 0)
(10.103 0.0515658 0)
(10.1099 0.0494498 0)
(10.1166 0.0470295 0)
(10.123 0.0441589 0)
(10.1288 0.0407586 0)
(10.1339 0.0369584 0)
(10.1382 0.0329751 0)
(10.1417 0.0289539 0)
(10.1441 0.0247665 0)
(10.0011 0.0115363 0)
(10.0122 0.0316209 0)
(10.0245 0.0424898 0)
(10.0373 0.0476158 0)
(10.0485 0.0511585 0)
(10.0596 0.0534482 0)
(10.0704 0.0535509 0)
(10.0801 0.0521671 0)
(10.0883 0.0501915 0)
(10.0957 0.0482075 0)
(10.1026 0.0460845 0)
(10.1091 0.0436981 0)
(10.1153 0.0409359 0)
(10.1208 0.0377618 0)
(10.1257 0.0342815 0)
(10.1298 0.0306781 0)
(10.1333 0.0270811 0)
(10.1358 0.0234203 0)
(10.0009 0.00961945 0)
(10.0087 0.0275814 0)
(10.0205 0.0379057 0)
(10.0328 0.0431903 0)
(10.0435 0.0466412 0)
(10.054 0.0487321 0)
(10.0642 0.0490367 0)
(10.0734 0.0480415 0)
(10.0816 0.0464168 0)
(10.089 0.0445629 0)
(10.0958 0.0425313 0)
(10.1022 0.0402178 0)
(10.1081 0.0375795 0)
(10.1134 0.034633 0)
(10.1181 0.03147 0)
(10.1221 0.0282176 0)
(10.1255 0.0249967 0)
(10.1281 0.021764 0)
(10.0007 0.00816691 0)
(10.0067 0.0236671 0)
(10.0172 0.0331697 0)
(10.0284 0.0385712 0)
(10.0387 0.0419637 0)
(10.0486 0.0439363 0)
(10.0582 0.0443877 0)
(10.0671 0.0436792 0)
(10.0751 0.0423195 0)
(10.0823 0.0406364 0)
(10.0891 0.0387131 0)
(10.0953 0.0365227 0)
(10.101 0.0340638 0)
(10.1062 0.0313627 0)
(10.1108 0.0284997 0)
(10.1147 0.025578 0)
(10.1181 0.0226972 0)
(10.1208 0.01984 0)
(10.0006 0.0069566 0)
(10.0055 0.0202624 0)
(10.0146 0.0290079 0)
(10.0247 0.0342729 0)
(10.0344 0.0375488 0)
(10.0438 0.0394385 0)
(10.0528 0.039991 0)
(10.0614 0.0394992 0)
(10.0692 0.0383571 0)
(10.0763 0.0368395 0)
(10.0829 0.0350396 0)
(10.089 0.0329915 0)
(10.0946 0.0307084 0)
(10.0996 0.0282381 0)
(10.1041 0.0256415 0)
(10.1081 0.0230129 0)
(10.1115 0.0204228 0)
(10.1143 0.0178833 0)
(10.0005 0.00595443 0)
(10.0046 0.0172724 0)
(10.0124 0.0251305 0)
(10.0215 0.0301232 0)
(10.0305 0.0332095 0)
(10.0393 0.034991 0)
(10.0479 0.035581 0)
(10.056 0.03523 0)
(10.0635 0.0342579 0)
(10.0704 0.0328938 0)
(10.0769 0.0312419 0)
(10.0828 0.0293514 0)
(10.0882 0.0272533 0)
(10.0932 0.024999 0)
(10.0976 0.0226489 0)
(10.1015 0.0202757 0)
(10.105 0.0179531 0)
(10.1079 0.0156731 0)
(10.0004 0.00494191 0)
(10.0039 0.0141752 0)
(10.0104 0.0209466 0)
(10.0184 0.0254889 0)
(10.0266 0.0282908 0)
(10.0348 0.0299102 0)
(10.0427 0.0304988 0)
(10.0504 0.0302648 0)
(10.0575 0.0294541 0)
(10.0642 0.0282523 0)
(10.0703 0.0267716 0)
(10.0761 0.0250584 0)
(10.0813 0.0231736 0)
(10.0861 0.0211536 0)
(10.0904 0.0190689 0)
(10.0943 0.0169677 0)
(10.0978 0.0149153 0)
(10.1008 0.0129046 0)
(10.0003 0.00391568 0)
(10.0032 0.0110634 0)
(10.0086 0.0165645 0)
(10.0155 0.0204454 0)
(10.0229 0.02284 0)
(10.0303 0.0242204 0)
(10.0376 0.024742 0)
(10.0447 0.0245723 0)
(10.0515 0.0238897 0)
(10.0578 0.0228485 0)
(10.0637 0.0215376 0)
(10.0692 0.0200296 0)
(10.0742 0.018363 0)
(10.0788 0.016602 0)
(10.083 0.0147809 0)
(10.0868 0.0129665 0)
(10.0903 0.0111761 0)
(10.0933 0.00943938 0)
(10.0003 0.00287777 0)
(10.0026 0.00798111 0)
(10.0071 0.012051 0)
(10.013 0.015053 0)
(10.0195 0.0168915 0)
(10.0262 0.0179287 0)
(10.0329 0.0182929 0)
(10.0395 0.0181114 0)
(10.0458 0.0175106 0)
(10.0517 0.0166032 0)
(10.0573 0.0154662 0)
(10.0625 0.0141612 0)
(10.0674 0.0127319 0)
(10.0718 0.0112273 0)
(10.0759 0.00968362 0)
(10.0796 0.00814323 0)
(10.083 0.00662882 0)
(10.086 0.00514356 0)
(10.0002 0.00182598 0)
(10.0022 0.00490313 0)
(10.0059 0.00740973 0)
(10.011 0.00932344 0)
(10.0168 0.010441 0)
(10.0228 0.0110076 0)
(10.0289 0.0111087 0)
(10.035 0.0108261 0)
(10.0408 0.0102454 0)
(10.0464 0.00943306 0)
(10.0517 0.00845526 0)
(10.0567 0.00734553 0)
(10.0613 0.00615539 0)
(10.0656 0.00490476 0)
(10.0696 0.00363882 0)
(10.0732 0.00236871 0)
(10.0766 0.001128 0)
(10.0796 -9.97766e-05 0)
(10.0002 0.00073331 0)
(10.0019 0.00173885 0)
(10.0051 0.00254429 0)
(10.0096 0.00317093 0)
(10.0148 0.00338496 0)
(10.0204 0.00333383 0)
(10.026 0.0030482 0)
(10.0317 0.00256638 0)
(10.0372 0.00192773 0)
(10.0425 0.00116637 0)
(10.0475 0.000312443 0)
(10.0523 -0.000609637 0)
(10.0567 -0.00157615 0)
(10.0609 -0.0025682 0)
(10.0648 -0.00356664 0)
(10.0683 -0.00455619 0)
(10.0716 -0.00552845 0)
(10.0746 -0.00648118 0)
(10.0002 -0.000482036 0)
(10.0018 -0.00172794 0)
(10.0049 -0.00281624 0)
(10.0092 -0.00367697 0)
(10.0142 -0.00453624 0)
(10.0195 -0.00534536 0)
(10.0249 -0.00612794 0)
(10.0304 -0.00689726 0)
(10.0357 -0.00765483 0)
(10.0408 -0.00841091 0)
(10.0457 -0.00916382 0)
(10.0504 -0.00991783 0)
(10.0547 -0.0106663 0)
(10.0588 -0.0114099 0)
(10.0626 -0.0121403 0)
(10.0661 -0.0128553 0)
(10.0694 -0.013553 0)
(10.0724 -0.0142346 0)
(10.0002 -0.00168498 0)
(10.002 -0.00510432 0)
(10.0054 -0.00800207 0)
(10.01 -0.0102615 0)
(10.0153 -0.0121182 0)
(10.0208 -0.0136199 0)
(10.0264 -0.014855 0)
(10.032 -0.0158715 0)
(10.0375 -0.0167274 0)
(10.0427 -0.0174607 0)
(10.0476 -0.0181148 0)
(10.0523 -0.0187043 0)
(10.0567 -0.0192562 0)
(10.0607 -0.019771 0)
(10.0645 -0.0202678 0)
(10.0681 -0.0207376 0)
(10.0714 -0.0212008 0)
(10.0744 -0.0216441 0)
(10.0003 -0.00280838 0)
(10.0024 -0.00820455 0)
(10.0064 -0.0126511 0)
(10.0117 -0.0160139 0)
(10.0175 -0.0186143 0)
(10.0235 -0.0206131 0)
(10.0295 -0.0221433 0)
(10.0354 -0.0232919 0)
(10.0411 -0.024158 0)
(10.0465 -0.024819 0)
(10.0516 -0.0253444 0)
(10.0563 -0.0257683 0)
(10.0608 -0.0261324 0)
(10.0649 -0.0264491 0)
(10.0687 -0.026745 0)
(10.0723 -0.0270183 0)
(10.0757 -0.0272889 0)
(10.0787 -0.0275508 0)
(10.0004 -0.00404108 0)
(10.0031 -0.0115173 0)
(10.0081 -0.0174114 0)
(10.0144 -0.0216833 0)
(10.0209 -0.0248584 0)
(10.0275 -0.0272259 0)
(10.034 -0.0289369 0)
(10.0404 -0.0301258 0)
(10.0464 -0.030929 0)
(10.052 -0.031471 0)
(10.0573 -0.0318273 0)
(10.0622 -0.0320667 0)
(10.0668 -0.0322234 0)
(10.071 -0.0323453 0)
(10.0749 -0.0324398 0)
(10.0785 -0.0325368 0)
(10.0819 -0.0326301 0)
(10.085 -0.0327416 0)
(10.0005 -0.00548622 0)
(10.0042 -0.0152342 0)
(10.0106 -0.0224327 0)
(10.0181 -0.0273854 0)
(10.0256 -0.0309846 0)
(10.0329 -0.0335955 0)
(10.04 -0.0353714 0)
(10.0469 -0.0364947 0)
(10.0533 -0.0371668 0)
(10.0593 -0.0375377 0)
(10.0648 -0.0377013 0)
(10.0699 -0.0377301 0)
(10.0746 -0.0376804 0)
(10.0789 -0.0375949 0)
(10.0829 -0.0375029 0)
(10.0866 -0.0374184 0)
(10.09 -0.0373527 0)
(10.0931 -0.0373069 0)
(10.0007 -0.00726983 0)
(10.0059 -0.0195393 0)
(10.0142 -0.0277576 0)
(10.0231 -0.0331179 0)
(10.0316 -0.0370095 0)
(10.0397 -0.0397755 0)
(10.0476 -0.0415222 0)
(10.055 -0.0424984 0)
(10.0619 -0.0429704 0)
(10.0683 -0.0431141 0)
(10.0741 -0.0430415 0)
(10.0794 -0.04283 0)
(10.0843 -0.0425555 0)
(10.0888 -0.0422617 0)
(10.0929 -0.0419896 0)
(10.0966 -0.0417433 0)
(10.1001 -0.0415418 0)
(10.1033 -0.0413725 0)
(10.0011 -0.00953225 0)
(10.0084 -0.0246016 0)
(10.0194 -0.0334175 0)
(10.0298 -0.0388885 0)
(10.0392 -0.0429139 0)
(10.0484 -0.0457185 0)
(10.0572 -0.0473704 0)
(10.0654 -0.0481797 0)
(10.0729 -0.0484398 0)
(10.0798 -0.0483391 0)
(10.086 -0.0479958 0)
(10.0916 -0.0475094 0)
(10.0968 -0.0469642 0)
(10.1014 -0.0464243 0)
(10.1057 -0.0459247 0)
(10.1095 -0.0454832 0)
(10.1131 -0.045106 0)
(10.1163 -0.044794 0)
(10.0017 -0.0125549 0)
(10.0124 -0.030359 0)
(10.0267 -0.0393608 0)
(10.039 -0.0448907 0)
(10.0498 -0.0489354 0)
(10.0603 -0.0515439 0)
(10.0705 -0.0529078 0)
(10.0799 -0.0534541 0)
(10.0883 -0.0534836 0)
(10.0959 -0.0531604 0)
(10.1029 -0.0526009 0)
(10.1091 -0.0519022 0)
(10.1146 -0.0511633 0)
(10.1196 -0.050448 0)
(10.1241 -0.0497931 0)
(10.1282 -0.0492149 0)
(10.1319 -0.0487184 0)
(10.1353 -0.0483069 0)
(10.003 -0.0172764 0)
(10.0198 -0.0365708 0)
(10.0387 -0.0447171 0)
(10.0543 -0.0505833 0)
(10.0682 -0.0550495 0)
(10.0817 -0.0575651 0)
(10.0945 -0.0585356 0)
(10.1061 -0.0586073 0)
(10.1164 -0.058148 0)
(10.1256 -0.0573415 0)
(10.1337 -0.0563167 0)
(10.1409 -0.0551929 0)
(10.1471 -0.0540787 0)
(10.1525 -0.0530561 0)
(10.1572 -0.0521513 0)
(10.1612 -0.0513793 0)
(10.1648 -0.0507441 0)
(10.1678 -0.0502177 0)
(10.0075 -0.026019 0)
(10.0407 -0.0454453 0)
(10.0708 -0.0511907 0)
(10.0966 -0.0566243 0)
(10.1201 -0.0617394 0)
(10.1418 -0.0648604 0)
(10.161 -0.0662196 0)
(10.1769 -0.0664747 0)
(10.1899 -0.0659946 0)
(10.2 -0.064975 0)
(10.2077 -0.0635839 0)
(10.2131 -0.0619909 0)
(10.2163 -0.0603445 0)
(10.2178 -0.0587691 0)
(10.2177 -0.057385 0)
(10.2166 -0.0562657 0)
(10.2148 -0.0554108 0)
(10.2124 -0.0549023 0)
(10.0478 -0.0370957 0)
(10.1425 -0.0639052 0)
(10.2136 -0.0681626 0)
(10.2575 -0.0695022 0)
(10.2819 -0.0704947 0)
(10.2912 -0.0701609 0)
(10.2875 -0.0686849 0)
(10.2731 -0.0666115 0)
(10.2505 -0.0642212 0)
(10.2221 -0.0615943 0)
(10.1894 -0.0588298 0)
(10.1535 -0.0560508 0)
(10.1156 -0.0533691 0)
(10.0763 -0.0509217 0)
(10.0364 -0.0487366 0)
(9.99713 -0.0469305 0)
(9.95879 -0.045608 0)
(9.92189 -0.0451309 0)
(9.87318 -0.0363836 0)
(9.63099 -0.07213 0)
(9.36729 -0.0849335 0)
(9.09981 -0.0873888 0)
(8.84755 -0.0845134 0)
(8.61851 -0.0787231 0)
(8.4123 -0.0717817 0)
(8.22773 -0.064418 0)
(8.06402 -0.0571144 0)
(7.91974 -0.0501773 0)
(7.79328 -0.0437138 0)
(7.6828 -0.0378054 0)
(7.58648 -0.0325015 0)
(7.5024 -0.0277906 0)
(7.42883 -0.0238419 0)
(7.36301 -0.0207535 0)
(7.30304 -0.0183857 0)
(7.24863 -0.0170121 0)
(-0.00233241 0.00687645 -8.0345e-19)
(-0.0115222 0.0115661 9.41944e-19)
(-0.0237754 0.0128817 -6.60256e-19)
(-0.0365869 0.0113879 -2.05083e-19)
(-0.0452235 0.00625411 3.24202e-19)
(-0.0428728 -0.00264251 -8.10245e-20)
(-0.0271652 -0.0149558 -8.31372e-20)
(-0.000806826 -0.0276686 3.94886e-19)
(0.0331895 -0.0369274 -1.75498e-19)
(0.0720867 -0.0414127 4.28248e-20)
(0.112885 -0.0417856 1.40774e-20)
(0.152463 -0.0391257 -1.53526e-19)
(0.188378 -0.0343977 2.15858e-19)
(0.219155 -0.0283316 2.21744e-19)
(0.244015 -0.021438 1.91731e-20)
(0.262602 -0.0140331 8.1206e-20)
(0.274607 -0.00630211 3.21285e-20)
(0.280218 0.00182899 5.625e-20)
(0.278382 0.0102496 8.3803e-20)
(0.269248 0.0185027 9.1173e-21)
(0.253442 0.0258677 -3.12884e-20)
(0.231577 0.0315828 2.6818e-19)
(0.204504 0.0349485 -3.62127e-20)
(0.17349 0.0354151 3.19295e-19)
(0.140249 0.0326425 -7.41863e-20)
(0.106864 0.0267138 3.25676e-19)
(0.0755904 0.0183434 1.9486e-19)
(0.0484669 0.00904639 1.54151e-19)
(0.0268994 0.000915446 -7.5323e-19)
(0.0114135 -0.00432289 -1.65796e-19)
(0.00170156 -0.00656115 -1.30759e-18)
(-0.0033537 -0.00726945 8.41104e-19)
(-0.00324799 -0.00809445 5.99608e-19)
(0.00208751 -0.0102079 -6.5724e-19)
(0.0135124 -0.0140739 -7.69517e-19)
(0.0321116 -0.0191418 -3.79671e-20)
(0.0572588 -0.0238296 1.60168e-19)
(0.0857809 -0.0258086 3.1039e-19)
(0.113193 -0.0238224 1.82423e-19)
(0.135315 -0.0182901 3.79129e-19)
(0.149194 -0.0106096 1.42687e-19)
(0.154121 -0.00257173 3.73575e-20)
(0.150902 0.00358389 -4.99471e-19)
(0.142978 0.00659845 -1.05885e-19)
(0.134814 0.00591283 2.26362e-19)
(0.130554 0.000898386 1.19707e-20)
(0.129656 -0.00791009 5.59292e-19)
(0.125297 -0.0183516 1.80692e-19)
(0.10977 -0.023348 7.63472e-20)
(0.0775029 -0.0141881 -7.03112e-19)
(0.0222657 0.00739728 6.3782e-19)
(-0.0647506 0.0284927 4.06813e-20)
(-0.164902 0.0499309 3.38165e-19)
(-0.275317 0.0705409 1.86906e-19)
(-0.396011 0.0886055 5.66839e-20)
(-0.523044 0.10335 1.10936e-19)
(-0.653283 0.110903 1.33044e-19)
(-0.784193 0.10803 -1.33462e-19)
(-0.912038 0.102803 4.90628e-20)
(-1.03225 0.0994434 5.19257e-20)
(-1.1458 0.0932071 -1.17714e-19)
(-1.25126 0.0861204 -7.36711e-20)
(-1.3484 0.0798527 5.56878e-20)
(-1.43752 0.0712545 6.55097e-20)
(-1.51888 0.0626438 1.80359e-20)
(-1.59296 0.0567025 -6.82462e-20)
(-1.66111 0.0521762 7.4194e-21)
(-1.72412 0.0476242 3.48096e-21)
(-1.78244 0.0436354 1.72477e-20)
(-1.83671 0.0402813 8.37131e-20)
(-1.8875 0.037412 -4.14407e-21)
(-1.93529 0.0350093 -5.98269e-20)
(-1.98051 0.0329553 6.40903e-20)
(-2.02348 0.0312292 2.32246e-20)
(-2.06452 0.0297473 -3.73632e-20)
(-2.10384 0.0284878 3.08755e-20)
(-2.14166 0.0273854 -4.7242e-21)
(-2.17814 0.0264229 5.88508e-20)
(-2.21342 0.0255521 2.69538e-20)
(-2.24759 0.0247666 -3.9579e-20)
(-2.28073 0.024024 -1.12437e-20)
(-2.31291 0.0233206 2.2131e-21)
(-2.34415 0.0226217 4.37491e-20)
(-2.37446 0.0219289 5.40618e-20)
(-2.40387 0.0212121 4.73888e-20)
(-2.43235 0.0204727 -4.79121e-20)
(-2.4599 0.01969 1.01582e-19)
(-2.48647 0.0188662 -4.0216e-21)
(-2.51203 0.0179784 7.24346e-20)
(-2.53648 0.0170521 -1.02423e-19)
(-2.55974 0.0160489 -5.48651e-20)
(-2.58176 0.0150017 4.60866e-20)
(-2.60251 0.0138783 6.6993e-20)
(-2.62189 0.0126932 -1.01637e-20)
(-2.63983 0.0114247 -6.29923e-20)
(-2.65623 0.0100913 -6.26008e-20)
(-2.67097 0.00868159 6.42834e-20)
(-2.68395 0.00721856 -3.46771e-20)
(-2.69505 0.00570764 -8.2843e-20)
(-2.70418 0.00418428 -3.61616e-20)
(-2.71123 0.0026907 8.94174e-20)
(-2.71616 0.00128054 4.50113e-20)
(-2.71894 4.43939e-05 6.74172e-20)
(-2.72008 -0.00104305 -4.12939e-20)
(-2.71963 -0.00205085 1.3173e-20)
(-2.71762 -0.00301465 4.58111e-21)
(-2.71409 -0.0039366 -8.40389e-21)
(-2.70907 -0.00482248 -1.82072e-20)
(-2.70258 -0.00566478 -2.73231e-20)
(-2.69467 -0.00645855 -4.43852e-20)
(-2.68539 -0.00720399 -6.06705e-20)
(-2.67477 -0.0078884 3.20178e-20)
(-2.66289 -0.00852147 -4.45109e-20)
(-2.64978 -0.00908421 -4.33296e-20)
(-2.63552 -0.00959472 7.5934e-20)
(-2.62015 -0.0100294 -4.45858e-21)
(-2.60374 -0.0104117 -4.80811e-20)
(-2.58636 -0.0107232 -4.97553e-20)
(-2.56808 -0.0109941 4.55725e-20)
(-2.54894 -0.0112104 3.38173e-21)
(-2.52896 -0.0113922 1.34664e-20)
(-2.50815 -0.0115255 -8.74373e-21)
(-2.48654 -0.0116321 -2.53436e-20)
(-2.46419 -0.0117023 2.12577e-20)
(-2.44113 -0.0117631 -1.86218e-20)
(-2.41735 -0.0118077 1.67143e-20)
(-2.39286 -0.0118547 2.2484e-20)
(-2.36764 -0.0119103 -7.92954e-21)
(-2.34165 -0.0119875 2.18403e-20)
(-2.31486 -0.0121158 -1.90944e-20)
(-2.28722 -0.0122927 4.57352e-20)
(-2.25867 -0.0125071 -3.94371e-21)
(-2.22919 -0.0127317 -4.74724e-20)
(-2.19871 -0.0130185 1.1126e-20)
(-2.16719 -0.0133217 -2.62478e-21)
(-2.13458 -0.0136541 1.29811e-20)
(-2.10087 -0.0139075 1.50629e-20)
(-2.06602 -0.0140105 -1.05972e-20)
(-2.03007 -0.0139421 -2.77802e-21)
(-1.9929 -0.0139608 2.27582e-22)
(-1.95445 -0.0143504 3.28523e-21)
(-1.91462 -0.0150137 8.73877e-21)
(-1.87345 -0.0156732 -7.32612e-21)
(-1.83091 -0.0163741 -1.02958e-20)
(-1.78698 -0.0171114 -2.2117e-20)
(-1.74166 -0.0178688 -3.69553e-20)
(-1.69494 -0.018647 -3.10645e-20)
(-1.64688 -0.0194296 -5.50063e-20)
(-1.59745 -0.0202222 2.93388e-20)
(-1.54675 -0.0210026 2.91649e-20)
(-1.49477 -0.0217789 5.33346e-20)
(-1.44162 -0.0225269 4.17565e-20)
(-1.3873 -0.0232574 1.24371e-19)
(-1.33196 -0.0239469 8.79107e-21)
(-1.2756 -0.0246055 5.86302e-21)
(-1.21836 -0.0252145 -1.06042e-19)
(-1.16033 -0.0257689 1.73743e-19)
(-1.10156 -0.0262926 -1.06607e-19)
(-1.04224 -0.0267497 1.52806e-20)
(-0.982352 -0.0271662 5.68586e-20)
(-0.922081 -0.0275309 2.13095e-20)
(-0.861448 -0.0278516 5.56237e-20)
(-0.800578 -0.0281285 2.69491e-19)
(-0.739516 -0.0283654 1.35706e-19)
(-0.678341 -0.028567 6.53626e-20)
(-0.617108 -0.0287347 9.43021e-20)
(-0.555875 -0.0288738 2.7095e-19)
(-0.494692 -0.028985 -1.20554e-20)
(-0.433615 -0.0290695 3.22543e-19)
(-0.372691 -0.0291338 4.72543e-19)
(-0.311973 -0.0291785 4.66535e-19)
(-0.251532 -0.0291974 -1.72312e-20)
(-0.191437 -0.0292066 4.52463e-20)
(-0.131755 -0.0291953 -1.08519e-19)
(-0.0726772 -0.0290832 -1.38067e-18)
(-0.0146149 -0.0285993 6.81238e-19)
(0.0425465 -0.0271451 4.68574e-19)
(0.0949859 -0.0245415 -8.5484e-19)
(0.151585 -0.0211359 -7.78877e-19)
(0.167453 -0.00852588 1.14485e-18)
(-0.000176565 0.018514 2.25611e-18)
(-0.00524013 0.032021 -1.81858e-18)
(-0.0106499 0.0329031 -7.9173e-19)
(-0.0100118 0.0231799 2.34455e-18)
(0.00425652 0.00169398 4.49696e-19)
(0.0325153 -0.0333141 1.81741e-19)
(0.0700079 -0.0716183 -1.17303e-19)
(0.112581 -0.10252 -4.3952e-19)
(0.15628 -0.121024 -2.50723e-20)
(0.198029 -0.127128 -3.21685e-19)
(0.235958 -0.123453 1.7212e-20)
(0.269193 -0.113139 -4.47979e-21)
(0.297447 -0.0988223 1.00424e-19)
(0.320758 -0.0823688 1.4394e-20)
(0.339347 -0.0649716 -3.1491e-20)
(0.353514 -0.0473025 -2.64501e-19)
(0.363602 -0.0297137 -5.72413e-20)
(0.369788 -0.0123088 2.51986e-19)
(0.372973 0.00494563 -2.92919e-19)
(0.373058 0.0219029 8.20949e-20)
(0.369659 0.0382519 7.48446e-21)
(0.362288 0.0534895 1.64445e-19)
(0.350431 0.0669145 1.95072e-19)
(0.333659 0.0776123 1.71856e-19)
(0.311802 0.084542 2.33877e-19)
(0.285099 0.0867221 -1.41548e-19)
(0.254397 0.0835033 3.85181e-20)
(0.221182 0.0749351 5.4038e-20)
(0.187511 0.0619179 -2.36736e-19)
(0.155905 0.0460257 -1.93075e-19)
(0.1291 0.0288923 -3.7065e-19)
(0.109895 0.0114906 -1.35205e-19)
(0.0995686 -0.00615927 -1.12962e-18)
(0.099646 -0.0236591 4.36437e-19)
(0.109152 -0.0414591 -5.44756e-19)
(0.126017 -0.0584201 5.48652e-19)
(0.145724 -0.0692225 -4.38689e-19)
(0.162604 -0.0688847 1.06206e-19)
(0.173205 -0.0579667 2.4987e-19)
(0.176515 -0.0405316 -1.94274e-19)
(0.172634 -0.0209584 1.73982e-19)
(0.16286 -0.00430393 -7.69827e-20)
(0.149185 0.00663626 -3.28799e-19)
(0.130914 0.0110131 -1.08884e-18)
(0.103569 0.0103436 -8.8732e-19)
(0.0577211 0.011561 1.28734e-20)
(-0.0182348 0.0318642 -1.2621e-18)
(-0.12684 0.0737011 -2.19248e-19)
(-0.253811 0.118656 5.117e-19)
(-0.388648 0.162112 5.66066e-19)
(-0.527839 0.200558 1.04804e-19)
(-0.670234 0.230413 -3.74482e-20)
(-0.811268 0.251322 -3.35681e-20)
(-0.949119 0.263627 -9.67151e-20)
(-1.08097 0.267728 -6.81577e-20)
(-1.20338 0.264969 -1.667e-19)
(-1.31427 0.256821 -1.86025e-19)
(-1.414 0.24382 -4.03978e-20)
(-1.50188 0.22766 2.59315e-20)
(-1.57946 0.21005 -1.2769e-19)
(-1.64817 0.191876 9.57612e-20)
(-1.70912 0.174181 -4.06582e-20)
(-1.76371 0.157829 -1.60288e-19)
(-1.81326 0.14294 1.2304e-20)
(-1.85859 0.129649 1.14534e-19)
(-1.90056 0.118018 -4.38824e-20)
(-1.93965 0.107898 4.83094e-21)
(-1.9763 0.0991527 -1.00687e-19)
(-2.01101 0.0916034 3.45825e-20)
(-2.04407 0.0851032 -5.86747e-20)
(-2.0757 0.0794903 1.04372e-21)
(-2.10608 0.0746283 -7.21363e-20)
(-2.13534 0.0703885 2.38207e-21)
(-2.1636 0.0666726 -4.23819e-20)
(-2.19091 0.0633824 5.58948e-20)
(-2.21735 0.0604527 -9.60515e-20)
(-2.24296 0.0578045 1.24467e-20)
(-2.2678 0.0553955 -9.6093e-20)
(-2.29187 0.0531653 3.76969e-21)
(-2.31522 0.051094 7.51085e-20)
(-2.33784 0.0491298 1.46679e-20)
(-2.35973 0.0472609 -4.36437e-20)
(-2.3809 0.0454451 -6.50242e-20)
(-2.40131 0.0436766 3.70726e-20)
(-2.42095 0.0419169 1.04215e-19)
(-2.43978 0.0401596 -3.28534e-20)
(-2.45776 0.0383751 -1.20343e-21)
(-2.47488 0.0365538 -2.75724e-21)
(-2.49107 0.0346826 6.60861e-20)
(-2.50628 0.0327583 2.32126e-19)
(-2.52043 0.030774 5.05898e-20)
(-2.5335 0.0287363 9.47833e-20)
(-2.54544 0.0266157 -2.06051e-19)
(-2.55624 0.0244302 -9.92533e-20)
(-2.56584 0.0221539 6.47924e-20)
(-2.57422 0.0198125 1.32103e-19)
(-2.58135 0.0173897 -7.28557e-20)
(-2.58725 0.0149148 -2.96939e-20)
(-2.59193 0.0123867 -5.13456e-20)
(-2.59545 0.00983927 7.49217e-20)
(-2.59789 0.00730506 -1.04436e-19)
(-2.59933 0.00483653 -7.87923e-20)
(-2.59983 0.00251021 -5.0941e-20)
(-2.59897 0.000313481 1.68775e-19)
(-2.59665 -0.00179128 -1.90811e-20)
(-2.59284 -0.00383153 1.19492e-20)
(-2.58754 -0.00579814 6.2312e-20)
(-2.58077 -0.00769649 1.34302e-19)
(-2.57256 -0.0095152 -1.83576e-20)
(-2.56294 -0.0112524 -5.15208e-20)
(-2.55197 -0.0129058 4.01102e-21)
(-2.53969 -0.014467 -9.46362e-20)
(-2.52615 -0.0159445 1.02169e-19)
(-2.51141 -0.0173233 3.80514e-20)
(-2.49554 -0.0186187 2.98857e-20)
(-2.47859 -0.0198076 7.3471e-20)
(-2.46063 -0.0209087 8.74793e-20)
(-2.44171 -0.0219113 -4.53605e-20)
(-2.42189 -0.0228455 2.9148e-20)
(-2.40121 -0.023705 4.16048e-20)
(-2.3797 -0.0245133 4.96494e-20)
(-2.35737 -0.0252563 -5.62786e-21)
(-2.33426 -0.0259613 -2.14678e-21)
(-2.3104 -0.0266175 -3.86637e-20)
(-2.28583 -0.0272595 -3.51564e-20)
(-2.26054 -0.0278772 -3.71152e-20)
(-2.23452 -0.028495 3.5712e-20)
(-2.20774 -0.0291116 -4.95021e-21)
(-2.18019 -0.0297376 -2.04813e-20)
(-2.15181 -0.0303828 -4.0872e-21)
(-2.12259 -0.0310404 -2.28751e-20)
(-2.09246 -0.0317326 -2.83801e-20)
(-2.06138 -0.0324419 -1.3482e-20)
(-2.02928 -0.0332009 6.76928e-21)
(-1.99613 -0.0339733 5.03866e-21)
(-1.96185 -0.0348064 4.80237e-21)
(-1.92641 -0.0356547 -4.86345e-21)
(-1.88971 -0.0365768 2.06463e-20)
(-1.8517 -0.0375384 -2.84334e-22)
(-1.81229 -0.0385446 -3.42331e-21)
(-1.77151 -0.0395659 -1.21365e-21)
(-1.72942 -0.040582 4.01831e-21)
(-1.68599 -0.0416044 3.23448e-21)
(-1.64117 -0.0426167 -8.19336e-21)
(-1.59494 -0.043629 -3.06615e-21)
(-1.54732 -0.0446145 -1.86619e-20)
(-1.4983 -0.0455744 -1.30088e-20)
(-1.44795 -0.0464935 3.15408e-20)
(-1.39626 -0.0473693 5.48223e-20)
(-1.34333 -0.0481898 -8.12151e-20)
(-1.28916 -0.04895 2.63441e-20)
(-1.23388 -0.0496401 5.44393e-21)
(-1.1775 -0.0502534 -1.64605e-19)
(-1.12015 -0.0507857 4.23262e-21)
(-1.06187 -0.0512263 2.79406e-21)
(-1.00281 -0.0515939 -6.12536e-20)
(-0.943031 -0.0518422 8.09568e-20)
(-0.882623 -0.0520248 1.19308e-19)
(-0.821731 -0.0521033 1.289e-19)
(-0.760398 -0.052108 1.18754e-19)
(-0.698769 -0.0520266 -1.83108e-19)
(-0.636895 -0.0518797 2.41154e-20)
(-0.574886 -0.0516656 -5.39909e-20)
(-0.512799 -0.0514 1.49994e-19)
(-0.450706 -0.051084 -4.72007e-20)
(-0.38866 -0.0507308 1.97527e-19)
(-0.326714 -0.0503389 -2.03416e-19)
(-0.264915 -0.0499198 -3.25878e-19)
(-0.203309 -0.0494629 -5.13833e-19)
(-0.141937 -0.048977 -2.50347e-19)
(-0.0808424 -0.0484676 -1.16869e-19)
(-0.0200383 -0.0479357 5.75789e-20)
(0.0405103 -0.0473764 3.53859e-20)
(0.100652 -0.046736 -4.09127e-19)
(0.160173 -0.0459205 -3.78854e-19)
(0.21879 -0.0447444 5.21449e-19)
(0.276432 -0.0428111 6.34857e-19)
(0.33082 -0.0397866 5.93081e-19)
(0.387177 -0.0350341 2.97424e-19)
(0.422038 -0.0218968 -6.37734e-19)
(0.000326276 0.0212094 2.90097e-19)
(0.000692064 0.035793 2.8482e-18)
(0.00693093 0.0275523 2.92325e-18)
(0.0268904 -0.00526613 -1.89005e-18)
(0.0650538 -0.0618341 3.31995e-19)
(0.113927 -0.123364 -1.52933e-19)
(0.163594 -0.171225 -6.25528e-20)
(0.207821 -0.197828 4.74669e-19)
(0.244346 -0.204521 3.69649e-19)
(0.273356 -0.196459 3.05183e-19)
(0.296032 -0.17912 1.36828e-19)
(0.313715 -0.156797 1.29384e-19)
(0.327505 -0.132318 -4.118e-19)
(0.338165 -0.107328 -2.55478e-19)
(0.346195 -0.0827038 9.18433e-20)
(0.35193 -0.0588504 -1.99179e-19)
(0.355603 -0.0359276 1.9546e-19)
(0.357391 -0.0139984 2.9445e-20)
(0.35752 0.00697813 2.91451e-19)
(0.356295 0.0271573 2.54697e-19)
(0.353954 0.0466424 -2.41981e-19)
(0.350658 0.0653681 -6.54681e-19)
(0.346334 0.0830002 -1.18637e-19)
(0.340624 0.0988764 -7.70623e-19)
(0.332896 0.111997 1.74301e-19)
(0.322371 0.121088 2.7705e-19)
(0.308332 0.124789 -1.1387e-19)
(0.290477 0.121983 4.07846e-19)
(0.269267 0.112161 2.32256e-19)
(0.246143 0.0956453 5.54221e-19)
(0.223404 0.0735529 -3.04039e-19)
(0.203689 0.0473248 -2.15832e-19)
(0.189326 0.0185298 1.22278e-19)
(0.180717 -0.0123622 -1.50337e-19)
(0.177366 -0.0441802 -2.00293e-19)
(0.175192 -0.0688077 -1.14917e-20)
(0.168326 -0.0763574 -5.47199e-19)
(0.154816 -0.0661629 1.80026e-19)
(0.135002 -0.0445514 -4.45878e-19)
(0.109477 -0.018174 -1.57471e-19)
(0.0784554 0.0100077 1.51059e-19)
(0.0396148 0.0371536 -1.79124e-19)
(-0.0141295 0.0600034 -3.80879e-19)
(-0.0911673 0.0881192 8.37733e-19)
(-0.191398 0.129526 6.85503e-19)
(-0.311803 0.179923 -3.45923e-19)
(-0.446227 0.234175 1.235e-19)
(-0.585808 0.28749 -1.17542e-19)
(-0.723896 0.33386 -1.76158e-19)
(-0.856249 0.370992 -7.52092e-20)
(-0.979378 0.398512 -7.27256e-20)
(-1.09073 0.415313 1.26288e-19)
(-1.18969 0.421586 2.00834e-20)
(-1.27601 0.418119 8.70583e-20)
(-1.35005 0.406083 9.5963e-21)
(-1.41303 0.387246 1.0685e-20)
(-1.46686 0.363549 4.46746e-20)
(-1.51389 0.336778 6.84298e-20)
(-1.55593 0.308896 -1.14465e-20)
(-1.59458 0.281683 2.18089e-19)
(-1.63077 0.255837 1.56601e-19)
(-1.66534 0.232015 3.61486e-20)
(-1.69868 0.210586 8.05925e-20)
(-1.73108 0.191521 -1.8778e-19)
(-1.76277 0.174767 2.78531e-20)
(-1.79375 0.160317 1.0875e-19)
(-1.82393 0.147891 -1.74746e-19)
(-1.8533 0.137137 -7.93076e-20)
(-1.88188 0.127814 5.32554e-20)
(-1.90969 0.119713 4.16278e-20)
(-1.93675 0.112639 -8.82841e-20)
(-1.96306 0.106426 1.52148e-19)
(-1.98866 0.100928 1.78263e-20)
(-2.01357 0.0960292 5.47026e-20)
(-2.03782 0.091624 -1.79153e-19)
(-2.06144 0.0876304 1.72919e-19)
(-2.08445 0.0839682 3.62364e-20)
(-2.10688 0.0805791 -7.45281e-20)
(-2.12875 0.0774033 -1.35123e-19)
(-2.15007 0.0743993 -6.68081e-20)
(-2.17084 0.071518 1.06867e-20)
(-2.19108 0.0687288 2.86743e-20)
(-2.21075 0.0659927 -1.3485e-20)
(-2.22984 0.0632858 -1.00659e-19)
(-2.24832 0.0605749 -2.76981e-20)
(-2.26615 0.05784 -3.0357e-20)
(-2.28329 0.0550536 1.81308e-20)
(-2.2997 0.0522009 -6.30576e-20)
(-2.31533 0.0492687 -9.06969e-20)
(-2.3301 0.0462481 -1.11839e-19)
(-2.34395 0.0431372 3.60818e-20)
(-2.35683 0.0399282 -1.32461e-19)
(-2.3687 0.0366236 1.29242e-19)
(-2.37952 0.0332182 1.1351e-20)
(-2.38923 0.0297233 -3.07054e-20)
(-2.39781 0.0261497 -5.74615e-20)
(-2.4052 0.0225175 1.9935e-20)
(-2.41139 0.0188518 9.64664e-20)
(-2.41635 0.0151791 7.98474e-20)
(-2.42006 0.0115311 3.55163e-20)
(-2.42249 0.00792561 4.28799e-20)
(-2.42359 0.00437677 2.14774e-20)
(-2.42333 0.000871117 1.99347e-20)
(-2.42162 -0.00258681 -2.7685e-19)
(-2.41846 -0.00597046 5.4597e-20)
(-2.41383 -0.00926138 4.95536e-20)
(-2.40775 -0.0124443 -9.64708e-20)
(-2.40023 -0.0155092 8.22122e-20)
(-2.39131 -0.0184417 -2.73652e-20)
(-2.38102 -0.0212362 1.18415e-19)
(-2.36941 -0.0238815 8.60595e-20)
(-2.35653 -0.0263767 6.03809e-20)
(-2.34244 -0.028715 -3.96395e-20)
(-2.32719 -0.0308989 4.77787e-20)
(-2.31085 -0.0329245 3.06758e-20)
(-2.29348 -0.034793 -3.65736e-20)
(-2.27514 -0.0365068 -5.45266e-20)
(-2.2559 -0.0380804 1.69237e-19)
(-2.23579 -0.0395264 2.50745e-20)
(-2.21485 -0.0408586 -5.69322e-20)
(-2.19312 -0.042092 -1.4172e-19)
(-2.17061 -0.0432344 -1.77791e-20)
(-2.14736 -0.0443068 -1.17998e-21)
(-2.1234 -0.0453229 -4.81381e-20)
(-2.09875 -0.0463074 4.99636e-21)
(-2.07339 -0.0472697 3.7207e-20)
(-2.04732 -0.0482324 -1.00843e-19)
(-2.0205 -0.0492033 3.30679e-20)
(-1.99291 -0.0502017 1.28663e-20)
(-1.9645 -0.0512352 4.88657e-20)
(-1.93522 -0.0523146 -1.31094e-20)
(-1.90503 -0.0534426 2.7089e-20)
(-1.87386 -0.0546239 6.47593e-20)
(-1.84166 -0.0558639 6.16579e-21)
(-1.80837 -0.0571527 -2.23927e-20)
(-1.77393 -0.0584968 5.21932e-21)
(-1.73827 -0.0598731 3.69069e-21)
(-1.70136 -0.0612851 -6.62188e-21)
(-1.66309 -0.06274 -6.08107e-21)
(-1.62345 -0.0642424 -2.31432e-22)
(-1.58247 -0.0658081 1.12918e-22)
(-1.54014 -0.0674127 -1.08003e-20)
(-1.49644 -0.0690325 -2.15066e-21)
(-1.45135 -0.0706401 -2.74467e-21)
(-1.40486 -0.0722255 -6.43966e-21)
(-1.35697 -0.0737671 3.4099e-20)
(-1.30772 -0.0752475 -1.05368e-20)
(-1.25714 -0.0766556 -2.4618e-20)