/*--------------------------------*- C++ -*----------------------------------*\
  =========                 |
  \\      /  F ield         | OpenFOAM: The Open Source CFD Toolbox
   \\    /   O peration     | Website:  https://openfoam.org
    \\  /    A nd           | Version:  13
     \\/     M anipulation  |
\*---------------------------------------------------------------------------*/
FoamFile
{
    format      ascii;
    class       volScalarField;
    location    "200";
    object      k;
}
// * * * * * * * * * * * * * * * * * * * * * * * * * * * * * * * * * * * * * //

dimensions      [0 2 -2 0 0 0 0];

internalField   nonuniform List<scalar> 
12225
(
0.659879
1.36029
1.65381
1.67137
1.63479
2.3692
1.94717
1.60812
2.326
2.85449
2.30476
1.62809
1.46813
2.0609
2.60288
2.15003
1.57028
1.41655
0.392986
0.374732
0.356851
0.385921
0.349692
0.432281
0.457051
0.455096
0.484866
0.453187
0.495385
0.485469
0.483337
0.494121
0.530207
0.553972
0.567414
0.612125
0.377945
0.339072
0.249477
0.162476
0.0913097
0.0850664
0.0862196
0.0860644
0.0715758
0.0584252
0.0673621
0.0726518
0.0767742
0.0792565
0.0814781
0.0775795
0.0779435
0.0855228
0.375667
0.342003
0.296866
0.225469
0.140597
0.0859803
0.0529011
0.0354549
0.0290888
0.0258806
0.0324377
0.0323613
0.0351934
0.0361291
0.0331175
0.0296884
0.0279793
0.0274296
0.375793
0.356792
0.3378
0.305571
0.261822
0.218312
0.177712
0.1505
0.122164
0.109065
0.0964893
0.0915944
0.0858281
0.0841787
0.0822841
0.0835254
0.0809115
0.0798315
0.375696
0.368695
0.361831
0.341382
0.315437
0.288549
0.263187
0.24346
0.226148
0.213911
0.204452
0.198018
0.193216
0.1904
0.187847
0.184864
0.182753
0.178318
0.374654
0.371913
0.368546
0.357079
0.341202
0.325571
0.309341
0.296284
0.287162
0.27753
0.270862
0.26707
0.259775
0.256878
0.253628
0.250829
0.249062
0.248581
0.374148
0.372034
0.369802
0.363457
0.354763
0.346131
0.337025
0.32957
0.323577
0.317945
0.314425
0.31076
0.308088
0.30496
0.302886
0.29977
0.298
0.294631
0.373866
0.371813
0.369736
0.366157
0.361529
0.356631
0.351859
0.3472
0.343376
0.339483
0.336652
0.333589
0.331385
0.328645
0.326766
0.324025
0.322313
0.319416
0.373834
0.371607
0.369584
0.367082
0.364236
0.361134
0.358146
0.3551
0.35241
0.349675
0.347383
0.344986
0.343014
0.340774
0.33902
0.336833
0.335248
0.333047
0.37384
0.371551
0.369477
0.367335
0.365176
0.362905
0.360716
0.358491
0.356428
0.354339
0.352447
0.350511
0.348802
0.346976
0.345404
0.343648
0.342221
0.340508
0.37384
0.371549
0.369434
0.367373
0.365403
0.363434
0.361554
0.359685
0.357914
0.35615
0.354498
0.352837
0.351311
0.34975
0.348339
0.346855
0.345565
0.344135
0.373834
0.371554
0.369417
0.367374
0.365445
0.363582
0.361815
0.3601
0.358471
0.356878
0.355368
0.35388
0.352482
0.351095
0.349805
0.348504
0.347322
0.346093
0.373829
0.371556
0.369409
0.367367
0.365439
0.3636
0.361859
0.360194
0.358614
0.357093
0.355649
0.354252
0.352927
0.351641
0.350425
0.349238
0.348124
0.347024
0.373827
0.371554
0.369402
0.36736
0.365426
0.363588
0.361845
0.360186
0.358611
0.357108
0.355678
0.35431
0.353008
0.351762
0.350574
0.349434
0.348349
0.347306
0.373826
0.371552
0.369396
0.367352
0.365414
0.363573
0.361825
0.360164
0.358584
0.357081
0.355649
0.354285
0.352985
0.351744
0.350561
0.349431
0.348353
0.347323
0.373825
0.37155
0.369393
0.367347
0.365405
0.363562
0.361811
0.360146
0.358563
0.357056
0.355621
0.354254
0.352951
0.351709
0.350523
0.349393
0.348314
0.347284
0.373825
0.371549
0.369391
0.367343
0.3654
0.363555
0.361801
0.360134
0.358548
0.357039
0.355601
0.354232
0.352927
0.351682
0.350495
0.349363
0.348282
0.34725
0.373825
0.371549
0.369391
0.367343
0.365399
0.363552
0.361798
0.36013
0.358543
0.357032
0.355593
0.354223
0.352916
0.35167
0.350482
0.349349
0.348267
0.347234
0.373825
0.37155
0.369392
0.367345
0.365402
0.363557
0.361803
0.360136
0.358549
0.357039
0.355601
0.354231
0.352924
0.351679
0.350491
0.349357
0.348274
0.347241
0.373826
0.371552
0.369396
0.367351
0.36541
0.363567
0.361815
0.360149
0.358564
0.357056
0.355619
0.354251
0.352944
0.351698
0.350506
0.349367
0.348274
0.347228
0.373828
0.371554
0.369402
0.36736
0.365422
0.363583
0.361832
0.360171
0.358586
0.357083
0.355646
0.354278
0.352963
0.351702
0.350479
0.349293
0.348138
0.347014
0.373832
0.371556
0.369413
0.367375
0.365441
0.363607
0.36185
0.360192
0.358601
0.357099
0.355653
0.354263
0.352899
0.351546
0.350178
0.348785
0.347373
0.345942
0.373838
0.371558
0.369439
0.367405
0.365471
0.363616
0.361819
0.360134
0.3585
0.356977
0.355481
0.353994
0.352441
0.350764
0.348938
0.346914
0.344773
0.342491
0.373843
0.371566
0.369515
0.367469
0.365501
0.363481
0.361548
0.359712
0.357958
0.356351
0.354727
0.352997
0.350988
0.348547
0.345637
0.342163
0.338349
0.334176
0.373848
0.371658
0.36978
0.367687
0.365519
0.362976
0.360734
0.358509
0.356619
0.354798
0.352973
0.35074
0.347749
0.343773
0.338473
0.332187
0.3248
0.317019
0.374023
0.372333
0.370986
0.368913
0.366095
0.362651
0.359668
0.356855
0.354787
0.35247
0.350452
0.347165
0.342669
0.335454
0.326021
0.313917
0.300355
0.285752
0.376115
0.377157
0.377911
0.377276
0.373971
0.369645
0.365392
0.362169
0.359326
0.356641
0.354463
0.352212
0.347121
0.337967
0.326221
0.309407
0.294897
0.27553
0.398063
0.414564
0.441177
0.45995
0.474032
0.485212
0.49584
0.505313
0.516261
0.526049
0.538588
0.550509
0.564899
0.577537
0.592528
0.603354
0.615518
0.623702
0.755693
1.14802
1.40939
1.54799
1.59914
1.59681
1.58166
1.54982
1.51062
1.47129
1.43394
1.39956
1.36839
1.3405
1.31544
1.29326
1.27323
1.25538
3.27444e-06
7.00653e-05
0.000315251
0.00113975
0.00332607
0.00660079
0.010437
0.0144454
0.0183719
0.022159
0.0257952
0.0291752
0.0322694
0.0350816
0.0376113
0.0398417
0.0418287
0.0433577
0.045315
0.0447789
0.0458087
0.0467199
0.0451297
0.0450384
0.044459
0.0433866
0.0427319
0.039763
0.0379661
0.0355248
0.0338655
0.0334265
0.0295499
0.0288042
0.0273718
0.0253068
0.0223414
0.0213724
0.0203551
0.0195553
0.0190486
0.0188199
0.0181631
0.0179543
0.0182467
0.0179655
0.0180258
0.0177109
0.0174793
0.0164425
0.0161827
0.0153545
0.0143304
0.0131378
0.0118507
0.0105218
0.00922483
0.00801104
0.00698422
0.0061257
0.00557026
0.00523658
0.00522569
0.00532566
0.0054752
0.00550596
0.00529364
0.00534146
0.00610139
0.00766215
0.0174277
0.0545508
0.122294
0.117653
0.145024
0.175175
0.201576
0.250066
0.275809
0.308862
0.333433
0.358041
0.378021
0.395937
0.410409
0.422007
0.430123
0.431877
0.445488
0.451674
0.457519
0.464881
0.466839
0.474626
0.476243
0.477376
0.479823
0.485279
0.485506
0.485821
0.487227
0.490631
0.489523
0.49061
0.492509
0.492736
0.489985
0.487633
0.487414
0.487878
0.48346
0.482282
0.481359
0.480521
0.479173
0.476243
0.472881
0.468087
0.464703
0.462384
0.459925
0.458547
0.457302
0.456436
0.455869
0.457979
0.452752
0.455565
0.449941
0.45483
0.453203
0.454178
0.454557
0.454599
0.451989
0.456487
0.470652
0.467074
0.469387
0.464796
0.460228
0.466112
0.481752
0.475867
0.483609
0.500876
0.496125
0.504352
0.527344
0.523504
0.533601
0.559869
0.561044
0.568403
0.566589
0.574903
0.584414
0.60846
0.609905
0.617842
0.616923
0.627458
0.640807
0.655242
0.676579
0.718837
0.726039
0.745094
0.759897
0.775423
0.791979
0.806552
0.822408
0.835163
0.851336
0.842246
0.812041
0.772598
0.730264
0.651327
6.83338e-06
0.000204582
0.00163467
0.00688144
0.0180733
0.031969
0.0464002
0.0599696
0.0720478
0.0824939
0.0913873
0.0988681
0.105111
0.110266
0.114457
0.117793
0.120396
0.122338
0.123727
0.12449
0.124816
0.124888
0.124762
0.123428
0.122255
0.119818
0.117151
0.113957
0.110523
0.106896
0.103241
0.0997959
0.0963033
0.0932572
0.0905678
0.0882526
0.0863372
0.0850496
0.084313
0.0841159
0.08463
0.0852123
0.0855922
0.0860113
0.0861452
0.0856762
0.0844045
0.0827352
0.0806342
0.0780446
0.0750247
0.0715683
0.0677842
0.0638399
0.05985
0.0559289
0.0522413
0.0490174
0.0465601
0.0449377
0.0448049
0.0454349
0.046965
0.0493466
0.0509086
0.0513308
0.0530935
0.0599354
0.0768131
0.107351
0.158334
0.215756
0.253019
0.284915
0.325953
0.374433
0.423267
0.485362
0.541479
0.601176
0.657296
0.71026
0.758938
0.802252
0.84098
0.874506
0.903958
0.929369
0.952052
0.97146
0.988309
1.00269
1.0149
1.02519
1.03338
1.03854
1.04505
1.0515
1.05558
1.05944
1.06226
1.06471
1.06652
1.06762
1.06811
1.06717
1.06591
1.06419
1.06151
1.05816
1.05367
1.04923
1.04399
1.03866
1.03207
1.02526
1.01819
1.01068
1.00316
0.994959
0.986618
0.97946
0.971868
0.964386
0.957128
0.949995
0.942975
0.935859
0.929177
0.926168
0.920077
0.912409
0.904284
0.902958
0.901872
0.90937
0.901665
0.903784
0.918012
0.910469
0.915016
0.94126
0.936338
0.947685
0.992449
0.990519
1.00367
1.01557
1.0294
1.04394
1.0605
1.07933
1.09661
1.11536
1.1339
1.15352
1.17433
1.19796
1.22223
1.25014
1.28159
1.31782
1.3602
1.40709
1.46139
1.52078
1.58197
1.6475
1.71355
1.7794
1.84602
1.91429
1.97096
2.01121
2.02561
1.99883
1.9366
1.85135
1.75498
1.63411
2.40732e-05
0.000714286
0.00525597
0.018576
0.0393732
0.0605809
0.0804336
0.0980376
0.113318
0.126451
0.137678
0.147233
0.155331
0.162151
0.167854
0.17258
0.176451
0.179566
0.182017
0.183867
0.185189
0.18606
0.186487
0.18655
0.186333
0.185217
0.183931
0.181954
0.179651
0.177035
0.174201
0.171251
0.168263
0.16536
0.162632
0.160141
0.157926
0.156008
0.154394
0.153008
0.151768
0.150454
0.148946
0.147153
0.144939
0.142235
0.13902
0.135337
0.131253
0.126834
0.122178
0.117384
0.112585
0.107927
0.103602
0.0998354
0.096937
0.0953202
0.0955288
0.0975194
0.101936
0.108754
0.117465
0.12781
0.13952
0.154525
0.18007
0.216829
0.26058
0.305139
0.344343
0.379927
0.42522
0.489993
0.565734
0.651585
0.742404
0.832508
0.920513
1.00256
1.07754
1.14461
1.20397
1.256
1.30154
1.34126
1.37602
1.40645
1.43312
1.4565
1.47692
1.49477
1.51045
1.52393
1.53544
1.54591
1.55522
1.56316
1.56981
1.57532
1.57989
1.58335
1.58501
1.58741
1.58706
1.58674
1.5858
1.58337
1.58021
1.57608
1.57125
1.56588
1.55975
1.55286
1.54523
1.53701
1.52877
1.51968
1.51007
1.49972
1.48966
1.47923
1.46922
1.45913
1.44928
1.43959
1.43024
1.42124
1.4127
1.40477
1.39427
1.38185
1.37086
1.3677
1.35844
1.3547
1.35007
1.34941
1.35067
1.35853
1.35149
1.3574
1.36444
1.37361
1.40635
1.40641
1.41572
1.42555
1.43342
1.44249
1.45347
1.4663
1.47837
1.49303
1.50736
1.52018
1.53464
1.55116
1.57045
1.59367
1.62211
1.65677
1.69784
1.7459
1.80051
1.86146
1.9284
1.99993
2.07349
2.14714
2.22121
2.28667
2.33513
2.35124
2.34494
2.32305
2.28015
2.21247
2.13181
2.00948
9.01744e-05
0.00252514
0.0152839
0.0437824
0.0735963
0.09983
0.122041
0.140704
0.156453
0.169818
0.18121
0.190948
0.199278
0.206397
0.212467
0.217622
0.221975
0.225631
0.228681
0.231189
0.233209
0.234789
0.235965
0.236772
0.237198
0.237283
0.237042
0.236165
0.234871
0.233177
0.231208
0.22902
0.226677
0.22425
0.221799
0.219364
0.216963
0.214572
0.212159
0.209641
0.206927
0.203907
0.200495
0.196632
0.192288
0.18747
0.182228
0.176645
0.170834
0.164925
0.15907
0.153445
0.148252
0.143734
0.140203
0.138025
0.137725
0.139957
0.145515
0.154873
0.168165
0.185314
0.206497
0.231425
0.260925
0.295182
0.330192
0.361856
0.390843
0.423946
0.471193
0.537807
0.623845
0.72493
0.830279
0.938232
1.04335
1.1439
1.23869
1.32622
1.40652
1.47937
1.54508
1.60408
1.65683
1.70404
1.74622
1.78387
1.81742
1.84737
1.87388
1.89747
1.91867
1.93744
1.95424
1.96938
1.98288
1.99487
2.00513
2.01389
2.02168
2.02806
2.03226
2.03679
2.03842
2.03868
2.03813
2.03646
2.03396
2.03053
2.02629
2.02105
2.01473
2.00744
1.99937
1.99069
1.98147
1.9715
1.96065
1.94935
1.93801
1.92598
1.91399
1.90173
1.88943
1.87707
1.86473
1.85245
1.8402
1.82792
1.81505
1.80264
1.79143
1.78215
1.77183
1.76297
1.75376
1.74568
1.73844
1.73488
1.72909
1.7293
1.72955
1.73089
1.74412
1.74291
1.74637
1.75212
1.75183
1.75361
1.75816
1.76509
1.77133
1.78063
1.79675
1.80015
1.80507
1.81007
1.81619
1.82454
1.83657
1.85374
1.87516
1.90452
1.94183
1.98761
2.04111
2.10024
2.16456
2.23179
2.30216
2.35588
2.38977
2.40673
2.4106
2.40221
2.37736
2.33484
2.28063
2.19241
0.00033299
0.00804193
0.0392613
0.0816395
0.115979
0.143219
0.165173
0.183261
0.198416
0.21126
0.222225
0.231633
0.239728
0.246705
0.252723
0.25792
0.262414
0.266306
0.269681
0.272604
0.275123
0.277275
0.279086
0.280571
0.281734
0.282575
0.283061
0.28319
0.28295
0.282199
0.281045
0.279618
0.277919
0.275981
0.273827
0.271464
0.268871
0.266
0.262789
0.259159
0.255041
0.250382
0.245155
0.239366
0.233058
0.226317
0.219267
0.212069
0.204908
0.19799
0.19155
0.185859
0.181241
0.178061
0.176882
0.178152
0.182832
0.191607
0.205136
0.224035
0.248235
0.277062
0.308839
0.341811
0.373239
0.400197
0.422546
0.448354
0.488684
0.550472
0.634385
0.737521
0.850011
0.965135
1.07879
1.18974
1.29642
1.39862
1.49569
1.58724
1.67315
1.75302
1.82678
1.89441
1.95611
2.01221
2.06315
2.10927
2.15096
2.18857
2.22245
2.25303
2.28063
2.3055
2.32793
2.34817
2.36634
2.38255
2.39682
2.40936
2.42052
2.42994
2.43771
2.44455
2.44957
2.45218
2.45301
2.45206
2.45058
2.44816
2.44473
2.44014
2.43437
2.42747
2.41955
2.41069
2.40097
2.39032
2.37873
2.36651
2.35377
2.34032
2.32654
2.31232
2.29774
2.28284
2.26765
2.25222
2.23656
2.22065
2.20452
2.18875
2.17352
2.15892
2.14423
2.13034
2.1169
2.10476
2.0933
2.0834
2.0741
2.0663
2.0594
2.05388
2.05158
2.04595
2.04193
2.04106
2.03928
2.03871
2.03851
2.03928
2.04247
2.0457
2.04569
2.0408
2.03412
2.02422
2.01133
1.99583
1.97815
1.96559
1.95593
1.95409
1.96342
1.97877
2.00644
2.04365
2.08988
2.14304
2.19195
2.2314
2.26607
2.29825
2.32449
2.34306
2.34918
2.33808
2.31023
2.25638
0.00111633
0.0214792
0.076476
0.123354
0.157578
0.183904
0.205007
0.222395
0.23697
0.24932
0.259858
0.268896
0.276678
0.283407
0.289256
0.294373
0.298885
0.302898
0.306495
0.30974
0.312681
0.315349
0.31776
0.319918
0.321812
0.323426
0.324735
0.32571
0.32631
0.326507
0.326291
0.325642
0.324561
0.323066
0.321151
0.31878
0.315896
0.312424
0.308296
0.30346
0.297887
0.291582
0.284589
0.276987
0.268899
0.26049
0.251971
0.243588
0.235612
0.228347
0.222143
0.217401
0.214638
0.214203
0.216763
0.223455
0.234926
0.251679
0.273781
0.300611
0.330683
0.362174
0.392567
0.419039
0.440887
0.462915
0.493798
0.544053
0.618369
0.714874
0.826516
0.943844
1.06111
1.17624
1.28858
1.398
1.50493
1.60916
1.71004
1.80708
1.89961
1.98714
2.06922
2.1457
2.21657
2.28186
2.34185
2.39681
2.44699
2.49272
2.53432
2.57213
2.6065
2.63773
2.66608
2.69177
2.71499
2.73588
2.75454
2.77116
2.78591
2.79873
2.8097
2.81906
2.82662
2.83236
2.83594
2.83737
2.83687
2.83559
2.83324
2.82961
2.82464
2.81837
2.81083
2.80211
2.79224
2.78126
2.76919
2.75621
2.74237
2.72765
2.7122
2.69607
2.67928
2.66192
2.64401
2.62559
2.60669
2.58728
2.5675
2.54775
2.5281
2.50855
2.48895
2.46955
2.45026
2.43179
2.41399
2.39726
2.3815
2.36683
2.35313
2.34042
2.32938
2.31832
2.30836
2.30038
2.29234
2.28556
2.27957
2.27403
2.26901
2.26283
2.25316
2.23781
2.21766
2.18996
2.15354
2.10842
2.05871
2.00668
1.95163
1.903
1.87614
1.85342
1.85203
1.86966
1.90108
1.93592
1.96894
2.00521
2.04466
2.08703
2.13125
2.17383
2.20925
2.23652
2.24271
2.23376
0.00313495
0.0461061
0.11525
0.161668
0.194933
0.220498
0.241033
0.25795
0.272093
0.28402
0.29414
0.302771
0.310179
0.31659
0.322199
0.327168
0.331635
0.33571
0.339481
0.343013
0.346351
0.34952
0.352526
0.35536
0.358004
0.360426
0.362594
0.364466
0.366006
0.367179
0.367899
0.368006
0.367417
0.366267
0.364488
0.361991
0.358668
0.354417
0.349178
0.342975
0.33585
0.327877
0.319176
0.309911
0.30029
0.290571
0.281059
0.272076
0.263947
0.25713
0.252126
0.249625
0.249428
0.25263
0.260477
0.273062
0.290408
0.312207
0.337587
0.36529
0.393726
0.420469
0.443991
0.466093
0.492561
0.532104
0.59244
0.675677
0.778672
0.892769
1.01027
1.12639
1.2399
1.35186
1.46268
1.57245
1.68119
1.78849
1.89379
1.99624
2.09507
2.18967
2.27951
2.3643
2.44377
2.51786
2.58662
2.65018
2.70874
2.76253
2.81185
2.85699
2.89828
2.93602
2.97046
3.00183
3.03034
3.05616
3.07943
3.10031
3.11895
3.13539
3.14969
3.16199
3.17228
3.18062
3.18701
3.19111
3.19288
3.19258
3.19135
3.18874
3.18464
3.17902
3.17192
3.16338
3.15344
3.14216
3.12957
3.11579
3.10087
3.08483
3.06777
3.04973
3.0307
3.01084
2.99021
2.96882
2.94672
2.92378
2.9001
2.87611
2.85193
2.82754
2.80297
2.7783
2.75352
2.729
2.70479
2.68111
2.65804
2.63566
2.61398
2.59343
2.57368
2.55433
2.5357
2.51804
2.50035
2.48312
2.46568
2.44786
2.42912
2.40847
2.38381
2.35334
2.31527
2.26801
2.20988
2.14053
2.05868
1.96762
1.87211
1.78123
1.71253
1.66796
1.65156
1.66238
1.6854
1.71297
1.74224
1.77428
1.81153
1.85577
1.90731
1.96311
2.01858
2.06957
2.10498
2.13355
0.00673291
0.0766125
0.149132
0.195436
0.228411
0.253705
0.273951
0.29053
0.304272
0.315742
0.325374
0.333519
0.340472
0.346485
0.351774
0.356519
0.360867
0.364937
0.368821
0.372586
0.37627
0.379892
0.38345
0.386925
0.390288
0.393496
0.396504
0.399258
0.401704
0.403781
0.405419
0.406363
0.406349
0.405307
0.403561
0.40084
0.396968
0.391845
0.385428
0.377795
0.369071
0.359419
0.349056
0.338249
0.327326
0.31667
0.30669
0.297761
0.290184
0.2846
0.281803
0.281195
0.283472
0.290753
0.30231
0.317896
0.337124
0.359464
0.383785
0.408772
0.433336
0.45742
0.4839
0.518005
0.567064
0.635656
0.724293
0.828102
0.940548
1.05502
1.16789
1.27943
1.39017
1.50071
1.6114
1.72235
1.83327
1.94361
2.05267
2.15967
2.26393
2.36474
2.46149
2.55367
2.64093
2.72303
2.7999
2.87154
2.93806
2.99963
3.05646
3.10883
3.15701
3.20128
3.24189
3.27907
3.31303
3.34395
3.372
3.39734
3.42008
3.44033
3.45815
3.47364
3.48685
3.49784
3.50668
3.51335
3.51744
3.5192
3.51894
3.51734
3.5141
3.50913
3.50244
3.49405
3.48401
3.47237
3.45913
3.44441
3.42829
3.4108
3.39201
3.37194
3.35041
3.32777
3.30411
3.27947
3.25391
3.22736
3.19986
3.17165
3.14281
3.11338
3.08342
3.05312
3.02261
2.99178
2.96067
2.92942
2.89806
2.86663
2.83509
2.80352
2.77186
2.74001
2.70808
2.67613
2.64367
2.61074
2.57682
2.54157
2.50435
2.46437
2.4201
2.36963
2.31122
2.24326
2.16386
2.07179
1.96701
1.85232
1.73415
1.62474
1.5392
1.48382
1.47099
1.48343
1.50574
1.53064
1.55598
1.58326
1.61478
1.65429
1.70371
1.76211
1.82532
1.88942
1.94239
1.99588
0.0111498
0.104122
0.17827
0.225218
0.25858
0.284046
0.304234
0.32055
0.333877
0.344838
0.353908
0.361476
0.367873
0.373384
0.378249
0.382662
0.386786
0.39075
0.39465
0.39855
0.402485
0.406465
0.41048
0.4145
0.418485
0.422383
0.426134
0.429669
0.432913
0.435777
0.43816
0.43983
0.440381
0.439514
0.437735
0.434795
0.430462
0.424616
0.417266
0.4085
0.398506
0.387528
0.375873
0.36389
0.35198
0.340647
0.330411
0.321671
0.31487
0.310848
0.309412
0.309517
0.31364
0.322851
0.335787
0.352177
0.371243
0.392469
0.415532
0.44076
0.468961
0.50243
0.545629
0.603216
0.677429
0.76688
0.867711
0.974847
1.08451
1.19401
1.30268
1.41114
1.52006
1.62988
1.74083
1.85278
1.96528
2.07779
2.18968
2.30031
2.40894
2.51481
2.61724
2.71567
2.80961
2.89874
2.98285
3.06184
3.13572
3.20458
3.26857
3.32789
3.38279
3.43351
3.48028
3.52332
3.56282
3.59898
3.63195
3.6619
3.68895
3.71319
3.73472
3.75361
3.76994
3.78374
3.79509
3.80402
3.81054
3.81433
3.81576
3.81508
3.81273
3.8084
3.80211
3.79389
3.78375
3.77175
3.75778
3.742
3.72455
3.70548
3.68485
3.6627
3.6389
3.61367
3.58708
3.55919
3.53005
3.49976
3.46838
3.43583
3.40212
3.36728
3.33132
3.29431
3.25629
3.21726
3.17723
3.13628
3.09444
3.0517
3.00805
2.96352
2.91812
2.87182
2.82469
2.77674
2.72779
2.67774
2.62621
2.57319
2.51798
2.45979
2.39775
2.33044
2.25643
2.17398
2.08134
1.97664
1.85985
1.73331
1.60241
1.48316
1.39461
1.33979
1.33064
1.34291
1.36176
1.38237
1.4047
1.42957
1.45821
1.49245
1.53571
1.59136
1.65468
1.72454
1.78531
1.85601
0.0155929
0.125928
0.203998
0.252389
0.286406
0.312105
0.332229
0.348264
0.361145
0.371539
0.379968
0.386868
0.392611
0.397516
0.401845
0.405811
0.409593
0.41333
0.41712
0.421024
0.425073
0.429267
0.433587
0.437994
0.442438
0.446854
0.451171
0.455306
0.459168
0.462651
0.465641
0.468005
0.469196
0.468859
0.466753
0.463828
0.459552
0.453742
0.446314
0.437389
0.427205
0.416039
0.404216
0.392073
0.379944
0.368367
0.357936
0.349257
0.342916
0.339603
0.338459
0.338808
0.344086
0.354284
0.367771
0.384569
0.404707
0.428545
0.456828
0.490786
0.532158
0.58318
0.646225
0.721699
0.808047
0.902771
1.00338
1.10709
1.21188
1.31682
1.422
1.52799
1.63531
1.74428
1.85497
1.96708
2.08018
2.19385
2.30755
2.42062
2.53234
2.64195
2.74877
2.85215
2.95157
3.0466
3.13695
3.2224
3.3029
3.37842
3.44906
3.51495
3.57629
3.63327
3.68609
3.73494
3.78001
3.82147
3.85947
3.89416
3.92566
3.95407
3.97947
4.00195
4.02156
4.03834
4.05237
4.06366
4.07232
4.07822
4.08127
4.08202
4.08064
4.07696
4.07108
4.06303
4.05283
4.04051
4.02603
4.00946
3.99091
3.97044
3.94808
3.9239
3.89805
3.8704
3.84097
3.80978
3.77686
3.74224
3.70594
3.66794
3.62825
3.58687
3.54381
3.49912
3.4528
3.40487
3.35532
3.3042
3.25152
3.19728
3.14146
3.08409
3.02518
2.96477
2.90291
2.83964
2.77498
2.7088
2.64159
2.57253
2.50156
2.42836
2.35244
2.27283
2.18833
2.09691
1.9967
1.88456
1.76024
1.62604
1.48548
1.35926
1.26913
1.21916
1.21178
1.2214
1.2364
1.25448
1.27533
1.29921
1.32678
1.35928
1.39845
1.45018
1.51143
1.58306
1.6473
1.72561
0.0198233
0.143626
0.22628
0.276603
0.311563
0.337651
0.357796
0.373582
0.386012
0.395814
0.403566
0.409753
0.414791
0.419028
0.422748
0.426185
0.429535
0.432941
0.436505
0.440288
0.444315
0.448582
0.45306
0.457696
0.462431
0.467194
0.471905
0.476473
0.480796
0.484758
0.48823
0.491065
0.493048
0.493636
0.492328
0.490305
0.487061
0.482375
0.476289
0.469152
0.461016
0.452026
0.442427
0.432545
0.422771
0.413522
0.405269
0.398377
0.393322
0.39064
0.389787
0.390683
0.397772
0.408899
0.424123
0.443953
0.469058
0.500437
0.538707
0.584617
0.638973
0.702236
0.774483
0.854967
0.942316
1.03497
1.13133
1.22989
1.32968
1.43039
1.53222
1.63558
1.74084
1.84823
1.95765
2.06881
2.18144
2.29515
2.40942
2.52363
2.63708
2.74907
2.85888
2.96587
3.06947
3.1692
3.26467
3.3556
3.44184
3.52329
3.59996
3.67193
3.7393
3.80224
3.86089
3.91541
3.96597
4.01272
4.05579
4.0953
4.13135
4.16403
4.19343
4.21962
4.24266
4.2626
4.27946
4.2932
4.30398
4.31187
4.31677
4.31903
4.31878
4.31606
4.31089
4.30328
4.29325
4.2808
4.26606
4.249
4.2296
4.20789
4.18389
4.15764
4.12917
4.09847
4.06556
4.03044
3.99316
3.95374
3.91219
3.86852
3.82272
3.77478
3.72473
3.67255
3.61827
3.56186
3.50331
3.44264
3.37984
3.31491
3.24783
3.17859
3.10724
3.03386
2.95852
2.88131
2.8023
2.72222
2.64054
2.55736
2.47281
2.38685
2.29924
2.20902
2.11509
2.01436
1.90496
1.78084
1.64267
1.49581
1.35197
1.23386
1.15257
1.11111
1.1059
1.11318
1.126
1.14281
1.16302
1.18667
1.21399
1.24602
1.28383
1.33222
1.39181
1.46386
1.53024
1.61165
0.0236299
0.159426
0.245844
0.297937
0.333834
0.360344
0.38055
0.396125
0.408146
0.417402
0.424527
0.43005
0.434425
0.438023
0.441148
0.44406
0.446964
0.450013
0.45331
0.456921
0.460874
0.465164
0.469754
0.474585
0.479588
0.484687
0.48981
0.494876
0.499798
0.504474
0.508795
0.512639
0.515877
0.518305
0.520125
0.52148
0.522032
0.521061
0.518254
0.516198
0.51393
0.511338
0.50847
0.505503
0.502656
0.500173
0.49834
0.49742
0.497337
0.497371
0.498584
0.502619
0.511527
0.524487
0.542192
0.565466
0.595249
0.631667
0.675024
0.725565
0.783237
0.847969
0.91932
0.997072
1.08034
1.16794
1.25877
1.35174
1.44636
1.54258
1.64054
1.74046
1.84265
1.94724
2.05412
2.16311
2.27398
2.38638
2.49984
2.61377
2.72753
2.84045
2.95183
3.06102
3.16745
3.27057
3.36996
3.46527
3.55627
3.6428
3.72477
3.80218
3.87507
3.94354
4.00767
4.0676
4.12346
4.17537
4.22344
4.26776
4.3084
4.34536
4.37878
4.40874
4.43528
4.45844
4.47825
4.49467
4.50783
4.51781
4.52467
4.52852
4.52968
4.52821
4.52406
4.51715
4.50747
4.495
4.47979
4.46185
4.44119
4.41783
4.39181
4.36316
4.33191
4.2981
4.26172
4.22279
4.18134
4.1374
4.09097
4.04205
3.99063
3.9367
3.88026
3.82129
3.75977
3.69568
3.62898
3.55966
3.48771
3.41311
3.33581
3.25581
3.17318
3.08802
3.00045
2.91067
2.81864
2.7258
2.63097
2.53478
2.43756
2.33916
2.23963
2.13725
2.03124
1.91558
1.79037
1.6531
1.50566
1.35596
1.21909
1.11568
1.04804
1.01462
1.01062
1.01604
1.02759
1.04383
1.06392
1.08768
1.11516
1.14722
1.18458
1.23139
1.29045
1.36281
1.43124
1.51414
0.0268943
0.172576
0.262223
0.315892
0.352644
0.379561
0.39986
0.415301
0.427025
0.435875
0.44253
0.447559
0.451438
0.454558
0.457246
0.459777
0.462366
0.465175
0.468318
0.471868
0.475867
0.480321
0.485205
0.49046
0.496006
0.501781
0.507737
0.513835
0.520041
0.526316
0.532624
0.538936
0.545232
0.551516
0.557869
0.564348
0.570857
0.577376
0.584228
0.591597
0.599425
0.607563
0.615932
0.624506
0.633245
0.64209
0.650981
0.659995
0.669013
0.678313
0.688195
0.699792
0.71354
0.729909
0.749591
0.773423
0.802166
0.836109
0.875427
0.920022
0.969484
1.02547
1.08851
1.15869
1.23467
1.31514
1.39894
1.48517
1.57365
1.66432
1.75714
1.85208
1.9495
2.04955
2.15221
2.2574
2.3649
2.47439
2.58542
2.69749
2.80999
2.92228
3.03369
3.14359
3.25136
3.35647
3.45847
3.55694
3.6516
3.74221
3.8286
3.9107
3.98846
4.06189
4.131
4.19592
4.25673
4.31352
4.36635
4.41528
4.46035
4.50154
4.53898
4.57272
4.60278
4.6292
4.65201
4.6713
4.68705
4.69928
4.70808
4.71353
4.71585
4.71523
4.71173
4.70516
4.69548
4.68269
4.66681
4.64787
4.62591
4.60094
4.57301
4.54216
4.50841
4.4718
4.43232
4.39001
4.34487
4.29691
4.24615
4.19257
4.13616
4.07689
4.01475
3.9497
3.8817
3.81071
3.73669
3.65959
3.5794
3.49606
3.40951
3.31975
3.22683
3.13093
3.03213
2.93039
2.82732
2.72171
2.61415
2.5049
2.39449
2.28204
2.16814
2.04869
1.92506
1.7946
1.65666
1.51044
1.36044
1.21664
1.09413
1.00785
0.953094
0.927305
0.923835
0.928169
0.939239
0.955399
0.975707
0.999814
1.02768
1.06008
1.0976
1.14405
1.2034
1.27631
1.34689
1.43093
0.0295641
0.182955
0.27503
0.329901
0.367322
0.394583
0.41501
0.43043
0.442038
0.450719
0.457183
0.46202
0.465717
0.468677
0.471248
0.473716
0.476309
0.479201
0.482522
0.486366
0.490797
0.495845
0.501504
0.507738
0.514502
0.521755
0.529485
0.537727
0.546518
0.555925
0.566021
0.576897
0.588655
0.601347
0.615094
0.630023
0.646173
0.663534
0.682184
0.702115
0.723165
0.745257
0.768249
0.79189
0.815881
0.83991
0.863681
0.886952
0.909531
0.931397
0.952688
0.973753
0.994953
1.01675
1.03964
1.06417
1.09055
1.11924
1.15069
1.1849
1.22161
1.26454
1.31515
1.37267
1.43588
1.50391
1.57597
1.65152
1.73014
1.81162
1.89604
1.98324
2.07337
2.16647
2.26264
2.3619
2.46397
2.56853
2.67521
2.78352
2.89293
3.00283
3.11257
3.22151
3.32902
3.43461
3.53777
3.63808
3.73516
3.82871
3.91848
4.0043
4.08605
4.16364
4.23703
4.30632
4.37151
4.43264
4.48975
4.54286
4.59201
4.63725
4.67858
4.71596
4.74941
4.77892
4.8045
4.82615
4.8439
4.85778
4.86786
4.87425
4.87717
4.87696
4.87396
4.86761
4.85787
4.84474
4.82825
4.80844
4.78533
4.75896
4.72937
4.69661
4.66069
4.62165
4.57948
4.5342
4.48582
4.43434
4.37975
4.32204
4.26118
4.19715
4.1299
4.05938
3.98555
3.90835
3.8277
3.74356
3.65589
3.56459
3.46958
3.37083
3.26837
3.16205
3.05265
2.94098
2.8256
2.70724
2.58626
2.46236
2.33645
2.2053
2.07174
1.93531
1.79612
1.65276
1.50629
1.35714
1.21241
1.08231
0.978818
0.909262
0.868423
0.849303
0.844222
0.848018
0.859197
0.875662
0.896355
0.920914
0.949243
0.98218
1.02024
1.06728
1.12738
1.20118
1.2739
1.35919
0.0315573
0.190287
0.28386
0.339429
0.377248
0.404747
0.425328
0.44087
0.452598
0.461424
0.46807
0.473127
0.477081
0.480347
0.483284
0.486187
0.489301
0.492819
0.496901
0.501674
0.507234
0.513644
0.520923
0.52907
0.538091
0.548019
0.558925
0.570896
0.584071
0.598569
0.614562
0.632247
0.651747
0.673147
0.696617
0.722271
0.750142
0.780328
0.81285
0.847602
0.884383
0.922933
0.962918
1.00393
1.0455
1.08713
1.12833
1.16861
1.20754
1.24477
1.28007
1.31333
1.34455
1.37387
1.40151
1.42779
1.45308
1.47798
1.50318
1.52954
1.55809
1.58997
1.62551
1.66526
1.71
1.75977
1.81434
1.87345
1.93686
2.0045
2.07626
2.15184
2.23086
2.31353
2.40004
2.49068
2.58468
2.68171
2.7815
2.88368
2.98774
3.09311
3.19915
3.30518
3.41059
3.51491
3.61759
3.71815
3.81614
3.91118
4.00295
4.09119
4.17571
4.25641
4.33321
4.40603
4.47481
4.53953
4.60015
4.65669
4.70913
4.75745
4.80164
4.84168
4.87753
4.90918
4.93663
4.95989
4.97895
4.99385
5.00465
5.01145
5.01447
5.01433
5.01174
5.00561
4.99577
4.9823
4.96523
4.9446
4.92045
4.89282
4.86175
4.82728
4.78943
4.74821
4.70364
4.65571
4.60442
4.54975
4.49171
4.43026
4.36537
4.297
4.2251
4.1496
4.07043
3.98752
3.90076
3.81012
3.71551
3.61672
3.51344
3.40575
3.29429
3.17884
3.05972
2.93591
2.80738
2.67454
2.5376
2.39431
2.24757
2.09786
1.9465
1.79439
1.64254
1.49078
1.34227
1.19766
1.06652
0.956484
0.874339
0.818648
0.786895
0.768116
0.768604
0.774614
0.786643
0.803619
0.8247
0.849647
0.878366
0.911882
0.950759
0.998698
1.0601
1.13508
1.20982
1.29652
0.0328783
0.194592
0.288604
0.344257
0.382138
0.409747
0.430522
0.44636
0.458486
0.467834
0.475112
0.480883
0.485628
0.489773
0.493684
0.497673
0.502008
0.506919
0.512608
0.51925
0.526984
0.5359
0.546047
0.557472
0.570255
0.584526
0.600383
0.618011
0.637561
0.659157
0.683086
0.709573
0.738776
0.770917
0.806159
0.844605
0.886299
0.931243
0.979359
1.03047
1.08433
1.14058
1.1988
1.25849
1.31907
1.37991
1.44037
1.49975
1.55738
1.61261
1.66484
1.71357
1.75838
1.79903
1.83538
1.86745
1.89547
1.91995
1.94172
1.96204
1.98254
2.00291
2.02344
2.04544
2.07033
2.09914
2.13266
2.1714
2.21559
2.26515
2.31958
2.37886
2.44319
2.51257
2.58704
2.66599
2.74827
2.83401
2.92339
3.01619
3.11178
3.20969
3.30932
3.41003
3.51117
3.61213
3.71233
3.81119
3.90821
4.00292
4.09492
4.18386
4.26949
4.35159
4.43
4.50457
4.57517
4.6417
4.70412
4.76238
4.81645
4.86632
4.91195
4.95331
4.99036
5.02308
5.05144
5.07542
5.09502
5.11024
5.12109
5.12768
5.13021
5.12976
5.12735
5.12125
5.11111
5.09712
5.07932
5.05776
5.0325
5.00356
4.97099
4.93481
4.89506
4.85173
4.80482
4.75433
4.70023
4.6425
4.58113
4.51609
4.44733
4.37481
4.29845
4.21805
4.13354
4.04487
3.9519
3.85456
3.75306
3.6472
3.53633
3.42049
3.30033
3.17403
3.04186
2.90406
2.7588
2.60639
2.44856
2.28586
2.11997
1.95274
1.78611
1.62244
1.46384
1.31154
1.16951
1.03818
0.928298
0.840863
0.779731
0.736958
0.711637
0.702121
0.701709
0.708052
0.720612
0.737979
0.759312
0.784462
0.813431
0.84747
0.887294
0.936467
0.999338
1.07557
1.15211
1.24031
0.0331926
0.194884
0.288437
0.343648
0.381297
0.408912
0.429939
0.446278
0.459146
0.469485
0.477893
0.484881
0.490958
0.496568
0.502096
0.507886
0.51425
0.521476
0.52983
0.539539
0.550765
0.563612
0.578178
0.594539
0.612826
0.63315
0.655619
0.680514
0.708079
0.738616
0.772367
0.809525
0.850266
0.894752
0.943101
0.995378
1.05159
1.11168
1.17552
1.24289