/*--------------------------------*- C++ -*----------------------------------*\
  =========                 |
  \\      /  F ield         | OpenFOAM: The Open Source CFD Toolbox
   \\    /   O peration     | Website:  https://openfoam.org
    \\  /    A nd           | Version:  13
     \\/     M anipulation  |
\*---------------------------------------------------------------------------*/
FoamFile
{
    format      ascii;
    class       volScalarField;
    location    "200";
    object      nut;
}
// * * * * * * * * * * * * * * * * * * * * * * * * * * * * * * * * * * * * * //

dimensions      [0 2 -1 0 0 0 0];

internalField   nonuniform List<scalar> 
12225
(
6.56142e-06
1.37752e-05
1.70939e-05
1.7663e-05
1.76626e-05
2.61227e-05
2.19114e-05
1.84263e-05
2.70886e-05
3.3771e-05
2.76548e-05
1.97956e-05
1.80492e-05
2.5566e-05
3.25592e-05
2.71039e-05
1.99266e-05
1.8081e-05
0.000254597
3.56957e-05
2.27159e-05
2.07113e-05
1.91575e-05
2.4252e-05
2.35047e-05
2.32948e-05
2.54924e-05
2.48702e-05
2.54304e-05
2.43925e-05
2.38551e-05
2.48028e-05
2.71573e-05
2.79467e-05
2.85539e-05
3.10089e-05
0.00102966
4.20219e-05
5.05229e-05
3.26014e-05
1.73706e-05
1.42635e-05
1.3227e-05
1.28752e-05
1.0373e-05
7.38987e-06
7.98501e-06
8.42365e-06
9.03725e-06
9.45795e-06
9.59762e-06
9.14254e-06
9.20174e-06
9.27637e-06
0.00255512
2.19212e-05
3.95801e-05
4.1659e-05
2.64059e-05
1.71869e-05
7.92356e-06
5.59478e-06
4.02963e-06
3.73865e-06
4.80366e-06
4.65305e-06
5.35799e-06
5.70953e-06
4.53047e-06
4.21601e-06
3.63537e-06
3.40243e-06
0.00432768
7.8768e-05
0.000103574
0.000118153
0.000103692
8.91732e-05
7.70282e-05
5.45675e-05
3.95695e-05
3.52989e-05
2.98541e-05
2.78318e-05
2.01939e-05
1.98671e-05
1.7749e-05
1.74944e-05
1.7781e-05
1.84888e-05
0.00270879
0.000406459
0.000382675
0.000355816
0.000385765
0.00029477
0.000261332
0.00022832
0.000179113
0.000156751
0.000109138
7.41501e-05
7.00197e-05
6.64338e-05
6.32711e-05
6.2286e-05
6.46288e-05
6.53979e-05
0.0012725
0.000719757
0.000702946
0.000686768
0.000663467
0.000511334
0.000437806
0.000376893
0.000343982
0.000292788
0.000255618
0.00023082
0.000170299
0.000158748
0.000143729
0.000135201
0.000137742
0.000140134
0.000935891
0.000859025
0.000845988
0.000790983
0.000721651
0.000597366
0.000484005
0.000393971
0.000377208
0.000369549
0.000356775
0.000344455
0.000309651
0.000276621
0.00026787
0.000263555
0.000260596
0.000257106
0.000867303
0.000863026
0.0008632
0.000849921
0.000812551
0.000743239
0.00066227
0.000585631
0.00052928
0.000495939
0.000466918
0.000458172
0.000452699
0.000435605
0.000422084
0.000412573
0.000409211
0.000402307
0.000854044
0.000853782
0.000857093
0.000855572
0.000847021
0.000826423
0.00078728
0.000744455
0.00070265
0.000670818
0.000644174
0.000623532
0.000608619
0.000596415
0.000588125
0.000575973
0.000573106
0.00056471
0.00085213
0.000851208
0.000851225
0.000851522
0.000852001
0.000846882
0.000836362
0.000820392
0.000801943
0.000784096
0.000767096
0.000753369
0.000741872
0.000729982
0.000721893
0.000712562
0.000709523
0.000703528
0.000851854
0.000850544
0.000850106
0.000849426
0.000850239
0.000848372
0.000846785
0.000842392
0.000835513
0.000828009
0.000820033
0.000812472
0.000806381
0.000799455
0.000794181
0.000787759
0.000783627
0.00077938
0.000851666
0.000850602
0.000849904
0.000849002
0.00084879
0.000848061
0.000847385
0.000846252
0.000844397
0.000842036
0.000839462
0.000836471
0.000834017
0.000831192
0.000828979
0.000826249
0.000824613
0.000821896
0.000851572
0.00085066
0.000849884
0.000849045
0.000848395
0.000847709
0.000847123
0.000846459
0.00084579
0.00084493
0.000844104
0.000843056
0.000842155
0.000841091
0.000840218
0.000839173
0.000838424
0.000837389
0.000851547
0.000850669
0.000849869
0.000849072
0.000848353
0.000847638
0.000846997
0.000846355
0.000845773
0.000845167
0.000844609
0.000844018
0.000843469
0.000842902
0.000842374
0.000841837
0.000841348
0.00084084
0.00085154
0.000850672
0.000849857
0.000849073
0.000848338
0.000847628
0.000846963
0.000846321
0.000845717
0.000845133
0.000844581
0.000844046
0.000843536
0.000843043
0.000842573
0.000842118
0.000841685
0.000841265
0.000851537
0.000850673
0.000849852
0.00084907
0.000848328
0.000847621
0.000846948
0.000846305
0.000845694
0.000845108
0.00084455
0.000844016
0.000843506
0.000843016
0.000842549
0.000842101
0.000841673
0.000841261
0.000851539
0.000850677
0.000849858
0.000849078
0.000848335
0.000847628
0.000846954
0.000846311
0.000845697
0.000845111
0.000844551
0.000844015
0.000843503
0.000843013
0.000842543
0.000842095
0.000841665
0.000841254
0.000851537
0.000850674
0.000849851
0.000849069
0.000848324
0.000847615
0.000846938
0.000846294
0.000845678
0.00084509
0.000844527
0.00084399
0.000843476
0.000842984
0.000842513
0.000842063
0.000841632
0.000841219
0.000851537
0.000850674
0.000849851
0.00084907
0.000848324
0.000847617
0.000846938
0.000846296
0.000845677
0.000845092
0.000844527
0.000843992
0.000843477
0.000842986
0.000842513
0.000842061
0.000841622
0.000841201
0.000851542
0.000850673
0.000849855
0.000849077
0.000848329
0.000847629
0.000846944
0.000846312
0.000845681
0.000845109
0.000844536
0.000844009
0.000843485
0.000843
0.0008425
0.000842009
0.000841488
0.000840967
0.000851577
0.000850638
0.000849879
0.000849071
0.00084835
0.000847625
0.000846934
0.000846288
0.000845611
0.000845064
0.000844447
0.00084387
0.000843331
0.000842821
0.000842088
0.000841236
0.000840054
0.000838758
0.00085166
0.000850529
0.000849952
0.000849065
0.00084836
0.000847358
0.000846531
0.000845456
0.000844565
0.000843779
0.000842968
0.000841563
0.000841488
0.00083965
0.000838536
0.000835218
0.000830346
0.000825142
0.00085165
0.000850543
0.000849988
0.000849115
0.000847162
0.000844359
0.000841193
0.000837584
0.000834253
0.000832061
0.000829383
0.000825687
0.000822074
0.000816791
0.000808566
0.000798127
0.000784184
0.000770037
0.000851583
0.000849948
0.000848945
0.000844321
0.000835646
0.000820648
0.000807149
0.000790349
0.000775813
0.000767452
0.000761989
0.000758202
0.000749081
0.000736782
0.000718251
0.000697439
0.00067014
0.000645479
0.000848271
0.000839144
0.000826898
0.000802853
0.00076804
0.000715925
0.000684792
0.000649105
0.000628
0.000608931
0.000601446
0.000589621
0.000571138
0.00055283
0.000525383
0.000500678
0.00046879
0.000443065
0.000805749
0.000762858
0.000701195
0.000628145
0.000546844
0.0004787
0.000431085
0.000397437
0.000377076
0.000358072
0.000343203
0.000327404
0.000309648
0.000292492
0.000269899
0.000252065
0.000228649
0.000211544
0.000528405
0.000440545
0.000340326
0.000270334
0.000220409
0.000187036
0.000165113
0.000150261
0.000139542
0.000131464
0.000124768
0.000119082
0.000112358
0.000105036
9.66591e-05
8.81373e-05
8.03157e-05
7.26714e-05
0.000138885
9.85031e-05
7.4144e-05
6.22867e-05
5.61531e-05
5.30065e-05
5.15646e-05
5.10114e-05
5.14057e-05
5.19481e-05
5.3198e-05
5.44846e-05
5.61378e-05
5.76418e-05
5.93067e-05
5.91964e-05
5.92483e-05
5.90341e-05
9.87237e-06
1.51429e-05
1.88056e-05
2.09275e-05
2.1906e-05
2.21542e-05
2.22125e-05
2.20175e-05
2.16936e-05
2.13417e-05
2.09935e-05
2.06658e-05
2.0365e-05
2.00949e-05
1.98514e-05
1.96387e-05
1.94479e-05
1.92801e-05
2.85647e-10
2.78674e-08
1.25278e-07
4.52531e-07
1.31944e-06
2.61618e-06
4.13293e-06
5.71506e-06
7.26191e-06
8.75083e-06
1.01774e-05
1.15002e-05
1.27079e-05
1.38023e-05
1.47834e-05
1.56451e-05
1.64094e-05
1.69925e-05
1.77421e-05
1.75148e-05
1.78996e-05
1.82372e-05
1.75985e-05
1.75448e-05
1.73012e-05
1.68662e-05
1.65941e-05
1.54248e-05
1.4712e-05
1.37511e-05
1.30945e-05
1.29106e-05
1.14007e-05
1.11006e-05
1.05366e-05
9.73068e-06
8.58062e-06
8.19899e-06
7.79961e-06
7.48437e-06
7.28181e-06
7.18578e-06
6.92666e-06
6.83872e-06
6.94159e-06
6.82615e-06
6.84054e-06
6.71264e-06
6.61645e-06
6.21605e-06
6.10996e-06
5.78972e-06
5.39651e-06
4.94088e-06
4.45087e-06
3.94647e-06
3.45533e-06
2.99658e-06
2.6089e-06
2.28503e-06
2.07493e-06
1.94787e-06
1.94106e-06
1.97535e-06
2.02787e-06
2.03629e-06
1.95488e-06
1.96961e-06
2.24646e-06
2.81685e-06
6.39721e-06
1.99933e-05
4.47522e-05
3.31682e-05
3.45596e-05
3.46888e-05
3.46725e-05
3.84686e-05
3.88708e-05
4.06245e-05
4.1544e-05
4.27338e-05
4.35944e-05
4.44064e-05
4.49898e-05
4.53897e-05
4.55259e-05
4.5086e-05
4.59569e-05
4.61221e-05
4.63014e-05
4.66648e-05
4.65216e-05
4.69891e-05
4.68734e-05
4.67368e-05
4.67463e-05
4.70675e-05
4.69014e-05
4.67604e-05
4.67373e-05
4.69208e-05
4.66879e-05
4.66741e-05
4.67482e-05
4.66728e-05
4.6323e-05
4.60192e-05
4.59249e-05
4.59024e-05
4.54231e-05
4.52505e-05
4.51053e-05
4.49709e-05
4.47921e-05
4.44654e-05
4.40985e-05
4.35995e-05
4.32346e-05
4.29664e-05
4.26826e-05
4.25037e-05
4.23354e-05
4.21999e-05
4.20909e-05
4.22306e-05
4.169e-05
4.18824e-05
4.12976e-05
4.16776e-05
4.14555e-05
4.14663e-05
4.14165e-05
4.13327e-05
4.10033e-05
4.13122e-05
4.24888e-05
4.20561e-05
4.21497e-05
4.16202e-05
4.10817e-05
4.14597e-05
4.26845e-05
4.19681e-05
4.24145e-05
4.36491e-05
4.29186e-05
4.32585e-05
4.48132e-05
4.40523e-05
4.44387e-05
4.61549e-05
4.58115e-05
4.60202e-05
4.55647e-05
4.60165e-05
4.66849e-05
4.8667e-05
4.90143e-05
5.00762e-05
5.06123e-05
5.23188e-05
5.45273e-05
5.7206e-05
6.10036e-05
6.75805e-05
7.21168e-05
7.95868e-05
8.92857e-05
9.31131e-05
9.40823e-05
9.46463e-05
9.55538e-05
9.59792e-05
9.84818e-05
9.92049e-05
9.78381e-05
9.52849e-05
9.23219e-05
8.82285e-05
5.96113e-10
9.55312e-08
1.48484e-06
7.88981e-06
2.23274e-05
4.15334e-05
6.32466e-05
8.50584e-05
0.000105227
0.000122818
0.000137501
0.00014908
0.000158098
0.000164885
0.000169478
0.000172251
0.000173619
0.000173805
0.00017305
0.000171405
0.000169161
0.000166651
0.000164037
0.000159389
0.000154238
0.000147352
0.000140417
0.000133332
0.000126566
0.000120263
0.000114457
0.000109529
0.000104963
0.000101765
9.91586e-05
9.69816e-05
9.65138e-05
9.61256e-05
9.69759e-05
9.87578e-05
0.000101579
0.000104605
0.000107317
0.000109867
0.000111424
0.0001118
0.000110872
0.000109218
0.000106836
0.000103709
9.94468e-05
9.42236e-05
8.83797e-05
8.22864e-05
7.62062e-05
7.04071e-05
6.51089e-05
6.09232e-05
5.78773e-05
5.58782e-05
5.54622e-05
5.56647e-05
5.51291e-05
5.45743e-05
5.11625e-05
4.44034e-05
3.79433e-05
3.44002e-05
3.66386e-05
4.41028e-05
5.55029e-05
6.75313e-05
7.65166e-05
8.6612e-05
0.000103979
0.000124695
0.000145247
0.000170404
0.00019862
0.0002284
0.000259336
0.000288217
0.000317044
0.000342227
0.000366135
0.000386559
0.000405199
0.00042126
0.000435896
0.000447769
0.000457797
0.00046686
0.000474843
0.000482295
0.000489027
0.000493768
0.00049745
0.000500457
0.000502145
0.0005035
0.000503636
0.000506878
0.000507297
0.000506703
0.000508323
0.000507376
0.000504513
0.000506647
0.000504873
0.000502631
0.00049957
0.000497188
0.000491984
0.000491806
0.000485355
0.000483268
0.000478315
0.00047762
0.000472524
0.000463802
0.00046203
0.000456146
0.000446964
0.000443507
0.000439255
0.000434896
0.000430395
0.000426567
0.000422612
0.000420156
0.000415384
0.000409658
0.000403425
0.000400791
0.00039793
0.000399055
0.000392807
0.000390943
0.00039417
0.000387353
0.000386696
0.000394307
0.000388581
0.000387637
0.000405096
0.000397446
0.0003983
0.000402616
0.000402546
0.000406842
0.000414032
0.000420347
0.000426563
0.000433697
0.000438913
0.000447354
0.000453401
0.000461196
0.000467576
0.000475794
0.000482912
0.000493378
0.000503037
0.000515811
0.000528976
0.000546261
0.000562301
0.000579849
0.000597075
0.000614211
0.000628116
0.000647871
0.000661512
0.000673847
0.000686231
0.000696645
0.000695294
0.000683012
0.00065422
0.000611308
2.10004e-09
2.9712e-07
3.84803e-06
1.73619e-05
4.54132e-05
8.20819e-05
0.000124791
0.000169262
0.000212435
0.000252168
0.000287283
0.000317137
0.00034162
0.000360884
0.00037512
0.00038511
0.000392136
0.000395945
0.000397191
0.000396291
0.000393633
0.000389604
0.000384382
0.000377868
0.000370278
0.000360604
0.000350631
0.000339703
0.000328797
0.000318193
0.000308159
0.000299028
0.000290927
0.000284241
0.000278935
0.000274997
0.000272314
0.000270944
0.000271383
0.000272747
0.000274773
0.000276871
0.000278562
0.000279441
0.000278945
0.000276875
0.000273175
0.000267963
0.000261373
0.000253471
0.000244196
0.000233965
0.000223124
0.000211575
0.000199955
0.000188685
0.000178211
0.000169001
0.000161373
0.000154258
0.000147116
0.000138752
0.000129861
0.000121343
0.000110294
9.76754e-05
9.3331e-05
9.63734e-05
0.000105139
0.000117968
0.000134722
0.000148394
0.00016896
0.000209869
0.000259132
0.000318808
0.000391172
0.000458077
0.000530557
0.000597
0.000660673
0.000716534
0.000767508
0.000811178
0.000850104
0.000883365
0.00091271
0.000938004
0.000960044
0.000979032
0.000995145
0.00100963
0.00102405
0.00103786
0.0010407
0.00105334
0.0010638
0.00106825
0.0010708
0.00106698
0.00107218
0.00107699
0.00107559
0.00107007
0.00107289
0.00106912
0.00105893
0.00105772
0.00105269
0.0010478
0.00104221
0.00104066
0.00103828
0.00103112
0.00102191
0.00100648
0.0010021
0.000998096
0.000987108
0.000966609
0.000960647
0.000941118
0.000931756
0.000922268
0.000912572
0.000903245
0.00089442
0.000886908
0.000881448
0.000880011
0.000867522
0.000843649
0.000829792
0.00082184
0.000810975
0.000803036
0.000794367
0.00078793
0.000782671
0.000780885
0.000771067
0.000768475
0.000767455
0.000769381
0.000788043
0.000781326
0.000774469
0.000780597
0.000780374
0.00077897
0.00078562
0.000793022
0.000796842
0.000806303
0.000815355
0.000822979
0.000829904
0.000837301
0.000846963
0.000857801
0.000869453
0.000883665
0.000899789
0.000918816
0.000940213
0.000964585
0.000992005
0.00101719
0.00104887
0.00105236
0.00100017
0.000961313
0.000957477
0.00100247
0.00106187
0.00110365
0.00113666
0.00116102
0.00118449
0.00111248
7.8664e-09
8.43661e-07
9.22125e-06
3.8198e-05
8.36137e-05
0.000139134
0.000199669
0.000260446
0.000318263
0.000371046
0.000417542
0.000457307
0.000490521
0.000517579
0.000538929
0.000555186
0.000566762
0.000574705
0.000579918
0.000582028
0.000581586
0.000578974
0.000574453
0.000568229
0.000560449
0.000551428
0.000541473
0.000530198
0.000518415
0.000506444
0.000494793
0.000483775
0.000473658
0.000464696
0.000457
0.000450567
0.000445398
0.000441245
0.000438431
0.000436304
0.000434451
0.000432273
0.000429353
0.000425315
0.000419843
0.000412764
0.000404033
0.000393712
0.000381897
0.000368697
0.000354155
0.000338918
0.000322595
0.000305502
0.000287923
0.00027008
0.000252474
0.000236252
0.000221932
0.000209428
0.00019718
0.000183504
0.000171568
0.000162425
0.000156002
0.000154898
0.000159895
0.000170918
0.000179533
0.00019146
0.000217826
0.000267335
0.00033389
0.000425857
0.000519047
0.000624066
0.000728266
0.000825245
0.000921081
0.00100654
0.00108533
0.00115475
0.00121693
0.00127146
0.00131948
0.00136151
0.0013993
0.00143308
0.00146117
0.00148938
0.00150851
0.00151987
0.00153658
0.00154915
0.00155948
0.00157131
0.00158181
0.00159248
0.00160004
0.00159374
0.00159995
0.00160776
0.00159731
0.00159841
0.00159986
0.00158462
0.00157919
0.00157397
0.00156699
0.00155937
0.00155103
0.00154277
0.00153334
0.00152228
0.00151055
0.00149716
0.00148592
0.00147276
0.00145775
0.00144009
0.00142506
0.0014073
0.00139211
0.00137647
0.00136068
0.00134498
0.0013294
0.00131411
0.00129909
0.0012841
0.00126594
0.00124541
0.00122744
0.00121143
0.00119517
0.00117969
0.00116395
0.00114884
0.00113446
0.0011224
0.00110914
0.00109996
0.0010917
0.00108492
0.00108759
0.00107793
0.00107071
0.00106948
0.00106256
0.0010607
0.00105867
0.00106323
0.00106329
0.00106454
0.00107479
0.00107819
0.00108289
0.0010886
0.00109584
0.00110454
0.00111359
0.00112243
0.00113491
0.00114971
0.00116826
0.00119113
0.00117984
0.00111952
0.00106515
0.00101821
0.00098621
0.000983697
0.0010155
0.00106334
0.00111458
0.00116565
0.00121564
0.00125743
0.00129448
0.00125693
2.90485e-08
2.32279e-06
2.2799e-05
7.37675e-05
0.000142512
0.000218635
0.000294377
0.000365496
0.000430103
0.000487323
0.000536802
0.00057884
0.000613981
0.000642906
0.000666217
0.000684473
0.000698135
0.00070805
0.000715384
0.000719765
0.000721358
0.000720521
0.000717504
0.000712604
0.000706068
0.000698141
0.000688996
0.000678906
0.000668128
0.000656594
0.000644814
0.000633296
0.00062221
0.000611745
0.000602004
0.000593014
0.000584744
0.000577081
0.000569814
0.000562604
0.00055518
0.0005471
0.000537985
0.000527597
0.000515758
0.000502385
0.000487484
0.000471145
0.000453523
0.000434734
0.000414925
0.000394318
0.000373003
0.000351114
0.000329074
0.000306861
0.000285024
0.00026351
0.000243926
0.00022953
0.000219919
0.000214352
0.000211467
0.000211174
0.000213637
0.000216706
0.000218432
0.000230281
0.00025574
0.000305595
0.000376324
0.000473949
0.000588422
0.000714256
0.000837497
0.000962613
0.00108095
0.00119188
0.00129621
0.00139058
0.00147724
0.00155497
0.00162484
0.00168829
0.00174376
0.00178844
0.00183199
0.00186996
0.00190302
0.00193247
0.00195707
0.00197742
0.00199679
0.0020127
0.00202659
0.00203935
0.00205028
0.0020594
0.00206591
0.00206838
0.00207285
0.00207523
0.00207301
0.00207265
0.00207003
0.00206252
0.0020562
0.00204833
0.00203957
0.00202998
0.00201958
0.00200845
0.00199617
0.00198259
0.00196806
0.00195244
0.00193673
0.00191934
0.00190061
0.00188074
0.00186086
0.00184002
0.00181947
0.00179836
0.00177682
0.00175494
0.00173271
0.0017102
0.00168741
0.00166392
0.00163905
0.00161352
0.00158861
0.00156435
0.00154014
0.00151628
0.00149263
0.00146974
0.00144724
0.00142568
0.0014046
0.00138473
0.00136598
0.00134849
0.00133365
0.0013162
0.00130002
0.00128744
0.00127399
0.00126306
0.00125312
0.00123964
0.00120797
0.0011782
0.00114914
0.00112129
0.00109757
0.00107809
0.00106383
0.00105486
0.00105062
0.00105271
0.0010559
0.00105756
0.00105194
0.0010317
0.00099694
0.000956575
0.000917996
0.00088991
0.000884859
0.000905916
0.000943177
0.000992161
0.00104941
0.0011112
0.00117314
0.00122617
0.00127092
0.00126707
9.73839e-08
6.12794e-06
4.81844e-05
0.000125571
0.000216508
0.000307726
0.000392765
0.000469074
0.00053578
0.000593083
0.000641664
0.000682495
0.000716672
0.000744714
0.00076724
0.000784921
0.000798345
0.000808321
0.000815661
0.000820194
0.000822203
0.000821982
0.000819795
0.000815865
0.000810381
0.000803512
0.000795421
0.00078628
0.000776221
0.00076542
0.000754074
0.000742348
0.000730418
0.000718474
0.000706603
0.000694997
0.000683441
0.000671744
0.000659688
0.000647041
0.00063355
0.000618972
0.000603127
0.000585917
0.000567314
0.000547363
0.000526177
0.000503903
0.000480675
0.00045666
0.000432024
0.000406918
0.000381581
0.000355912
0.000330468
0.000306756
0.000286461
0.000271608
0.000261707
0.000256419
0.000254389
0.000254249
0.000255839
0.000257858
0.000259627
0.000268845
0.000288574
0.000328353
0.000396153
0.000488626
0.000605409
0.000740094
0.000880477
0.00102021
0.00115508
0.00128579
0.00140875
0.00152441
0.00163178
0.00172839
0.0018192
0.00190471
0.00197832
0.00204614
0.00210595
0.00215821
0.00220603
0.00224855
0.00228627
0.00231974
0.0023489
0.0023743
0.00239699
0.00241659
0.00243374
0.00244881
0.00246178
0.00247259
0.00248086
0.00248665
0.00249158
0.0024943
0.00249454
0.00249419
0.00249186
0.00248724
0.00248145
0.00247364
0.00246396
0.00245355
0.00244225
0.00242992
0.00241636
0.00240148
0.00238538
0.00236807
0.00234986
0.00233014
0.00230906
0.00228696
0.00226406
0.00224024
0.00221583
0.0021906
0.00216461
0.0021379
0.00211047
0.00208233
0.0020535
0.00202367
0.00199272
0.0019612
0.00192955
0.00189776
0.00186564
0.00183325
0.00180057
0.00176816
0.00173593
0.00170415
0.0016729
0.00164234
0.00161249
0.00158321
0.00153964
0.00149072
0.00144279
0.00139622
0.00134972
0.00130412
0.00125885
0.00121394
0.00116987
0.00112611
0.00108284
0.00104043
0.00100111
0.000965542
0.000935135
0.000911164
0.00089583
0.000889006
0.000886595
0.000885707
0.000882151
0.000864167
0.000840332
0.000810911
0.000782724
0.000771182
0.000780448
0.0008058
0.000844513
0.000895678
0.000957554
0.00102653
0.00109797
0.00116623
0.00122633
0.00125502
2.73479e-07
1.45294e-05
8.34812e-05
0.000184368
0.0002911
0.000391829
0.00048219
0.000560672
0.000627371
0.000683528
0.000730439
0.000768991
0.000800307
0.000825287
0.000845036
0.000860415
0.000872114
0.000880818
0.000886888
0.000890644
0.000892383
0.000892308
0.000890572
0.0008873
0.0008826
0.00087657
0.000869308
0.000860917
0.000851505
0.000841204
0.000830013
0.000817782
0.000804518
0.000790697
0.000776309
0.000761267
0.000745464
0.000728759
0.000711029
0.000692206
0.000672208
0.00065096
0.000628433
0.000604654
0.000579713
0.000553771
0.000527025
0.000499695
0.000472023
0.000444339
0.000417082
0.000390993
0.000365514
0.000342335
0.00032333
0.000308774
0.000298882
0.000293126
0.000290211
0.000289783
0.000291198
0.000293135
0.000294442
0.000299689
0.000316002
0.000348278
0.000406066
0.000485976
0.000594231
0.000723203
0.000868518
0.00101813
0.00116435
0.00130644
0.00144243
0.00157149
0.00169118
0.00180157
0.00190946
0.00201162
0.00210705
0.00219124
0.00226767
0.00233784
0.00240128
0.00245842
0.00251032
0.00255705
0.00259899
0.00263652
0.00266985
0.00269937
0.00272559
0.00274866
0.00276895
0.00278673
0.00280215
0.00281526
0.00282595
0.00283441
0.00284116
0.00284578
0.00284829
0.00284932
0.00284847
0.00284576
0.00284154
0.00283526
0.00282687
0.00281663
0.00280563
0.00279347
0.00278002
0.00276517
0.00274893
0.00273131
0.00271241
0.00269201
0.00267016
0.00264709
0.00262287
0.00259752
0.00257115
0.0025437
0.00251514
0.00248557
0.00245501
0.00242344
0.00239088
0.00235702
0.00232181
0.0022858
0.00224921
0.00221194
0.00217379
0.00213503
0.00208581
0.00202821
0.00197052
0.00191259
0.00185448
0.00179648
0.00173861
0.00168115
0.00162452
0.00156866
0.00151417
0.00146109
0.00140939
0.00135888
0.00130994
0.00126159
0.0012136
0.00116556
0.0011173
0.00106907
0.00102166
0.000976203
0.000933981
0.000896664
0.000865215
0.000841439
0.000824815
0.000816006
0.000807113
0.000784084
0.000749382
0.000714339
0.000692991
0.000690124
0.000702014
0.00072696
0.000764772
0.000815399
0.000878113
0.000950164
0.00102826
0.00110632
0.00118174
0.00123626
5.87348e-07
2.80318e-05
0.00012172
0.000241614
0.000360379
0.000467674
0.000560525
0.000639246
0.000705132
0.000759152
0.00080249
0.000836962
0.000864098
0.000885231
0.000901543
0.000914184
0.000923691
0.000930354
0.000934733
0.00093718
0.000937946
0.000937197
0.000935039
0.000931539
0.000926743
0.000920682
0.00091339
0.000904904
0.000895269
0.000884537
0.000872746
0.000859556
0.000844635
0.00082808
0.000810759
0.000792302
0.000772535
0.000751311
0.00072003
0.000687759
0.000657467
0.000628322
0.000600148
0.000573006
0.000547325
0.000523564
0.00050207
0.000477863
0.000449833
0.000423412
0.000399647
0.000377513
0.000357912
0.00034343
0.000332985
0.000325817
0.000321554
0.000319957
0.00032065
0.000322543
0.000324847
0.000329035
0.000344039
0.000367937
0.000415372
0.000482712
0.000575874
0.000689427
0.000824976
0.000973147
0.00112551
0.00127491
0.00141907
0.00155603
0.00168478
0.00180864
0.00192575
0.00204121
0.00214815
0.00224836
0.00234088
0.00242611
0.00250472
0.00257726
0.00264378
0.00270456
0.00276007
0.00281055
0.00285629
0.0028976
0.00293474
0.00296802
0.00299777
0.00302425
0.00304773
0.00306845
0.00308661
0.00310232
0.0031156
0.00312659
0.0031355
0.00314223
0.00314688
0.00314966
0.00315052
0.0031495
0.00314675
0.00314216
0.00313536
0.00312659
0.00311615
0.00310462
0.00309176
0.00307742
0.00306157
0.0030442
0.00302532
0.00300489
0.00298287
0.00295941
0.00293457
0.00290838
0.00288091
0.00285211
0.00282178
0.00279022
0.00275748
0.00272357
0.00268851
0.00265215
0.00260135
0.00254435
0.0024865
0.00242793
0.0023688
0.00230909
0.00224898
0.00218883
0.00212868
0.00206845
0.00200823
0.00194853
0.00188934
0.00183151
0.00177437
0.00171818
0.00166316
0.00160932
0.00155675
0.0015052
0.00145467
0.00140488
0.0013557
0.00130675
0.00125788
0.0012088
0.00115957
0.00111035
0.00106138
0.00101327
0.000967203
0.000924762
0.000885241
0.000846237
0.000802638
0.000746044
0.000691804
0.000654177
0.000637964
0.000638177
0.000651479
0.000676587
0.000713221
0.000762173
0.000823683
0.000896441
0.000977919
0.00106283
0.00114941
0.00122306
9.72656e-07
4.19455e-05
0.000152792
0.000286383
0.000415448
0.000529123
0.000625437
0.000704707
0.000768268
0.000818503
0.000857638
0.000887726
0.000910538
0.000927686
0.000940824
0.000950793
0.000957533
0.00096186
0.000964249
0.00096503
0.000964413
0.000962525
0.000959427
0.000955137
0.000949648
0.000942942
0.000935
0.000925812
0.000915373
0.000903686
0.000890747
0.000876317
0.000859853
0.000841068
0.000821208
0.000799998
0.000772079
0.000732777
0.000696315
0.00066272
0.00063143
0.000602105
0.000574606
0.000548982
0.000525734
0.000505958
0.000489986
0.000465277
0.000440487
0.000418715
0.000399518
0.000381374
0.000367185
0.000357958
0.000351942
0.000348861
0.000348281
0.000349314
0.000351874
0.00035793
0.000373669
0.000396072
0.000431447
0.000487064
0.000564577
0.000661619
0.000778522
0.000911001
0.00105715
0.00120674
0.00135424
0.00149501
0.00163061
0.00175962
0.00188541
0.00200624
0.00212568
0.00223704
0.00234181
0.00244037
0.00253257
0.00261859
0.00269873
0.00277323
0.00284221
0.00290587
0.00296444
0.00301816
0.00306724
0.00311194
0.0031525
0.00318922
0.00322235
0.00325212
0.00327876
0.00330247
0.00332352
0.003342
0.00335799
0.00337158
0.00338288
0.00339195
0.00339887
0.00340374
0.0034066
0.00340747
0.00340644
0.00340352
0.00339866
0.00339162
0.00338269
0.00337206
0.00336027
0.00334693
0.003332
0.00331545
0.00329728
0.0032775
0.00325593
0.0032327
0.00320794
0.0031817
0.00315403
0.00312494
0.00309123
0.00304161
0.002991
0.00293924
0.00288654
0.00283295
0.00277849
0.00272331
0.00266745
0.00261117
0.00255464
0.00249799
0.00244158
0.00238505
0.00232843
0.00227141
0.00221393
0.00215624
0.00209836
0.00204048
0.00198268
0.0019253
0.0018686
0.00181275
0.00175786
0.0017039
0.00165104
0.00159948
0.00154913
0.00149959
0.00145028
0.00140007
0.00134787
0.00129251
0.00123333
0.00117024
0.0011041
0.00103539
0.00096255
0.000877551
0.000786925
0.000700888
0.000643379
0.000611205
0.000598661
0.000601506
0.000617315
0.000644551
0.000682452
0.000731048
0.000791428
0.000864773
0.000948483
0.00103952
0.00113398
0.00122394
1.36026e-06
5.4108e-05
0.000182355
0.000328905
0.000465231
0.000582932
0.000679688
0.00075702
0.000817433
0.000863706
0.000898502
0.000924162
0.000942759
0.000956436
0.000966892
0.000973543
0.000977476
0.000979331
0.000979552
0.000978435
0.000976154
0.000972804
0.000968413
0.000962968
0.000956423
0.000948728
0.000939835
0.000929712
0.000918343
0.000905729
0.000891885
0.000876823
0.000859813
0.000840552
0.000818956
0.000796967
0.000773813
0.000749386
0.000720144
0.000687813
0.00065896
0.000633174
0.00061017
0.000584162
0.000555685
0.000527886
0.00050138
0.000476753
0.000454612
0.000435761
0.000418883
0.00040307
0.000392385
0.000386669
0.000383749
0.00038342
0.00038546
0.000392056
0.000405933
0.000429143
0.000464911
0.000508861
0.000570994
0.000651625
0.000749128
0.000861508
0.000987749
0.00112361
0.00126456
0.00140546
0.00154332
0.0016764
0.00180468
0.00192856
0.00205161
0.00217279
0.00228712
0.00239564
0.00249851
0.00259585
0.00268769
0.0027741
0.00285521
0.00293115
0.003002
0.0030679
0.00312898
0.0031854
0.00323735
0.00328499
0.00332849
0.00336831
0.00340455
0.00343743
0.00346712
0.00349379
0.00351775
0.00353902
0.00355772
0.00357395
0.0035878
0.00359936
0.00360871
0.0036159
0.003621
0.00362401
0.00362501
0.003624
0.00362106
0.00361604
0.00360886
0.00359994
0.0035896
0.00357755
0.00356387
0.00354851
0.00353141
0.0035128
0.00349246
0.00345961
0.00341917
0.00337738
0.00333445
0.00329043
0.00324531
0.00319948
0.00315301
0.00310607
0.00305863
0.00301091
0.00296291
0.00291418
0.00286468
0.00281435
0.00276321
0.00271115
0.00265824
0.00260458
0.00255019
0.00249478
0.00243827
0.0023807
0.00232221
0.00226297
0.00220321
0.00214337
0.0020838
0.00202473
0.00196633
0.0019086
0.00185205
0.00179617
0.00174077
0.00168473
0.00162612
0.00156256
0.00149195
0.0014129
0.00132611
0.00123363
0.00113882
0.00104329
0.000944418
0.000842721
0.000742076
0.000655719
0.000601893
0.000573994
0.000565501
0.000572308
0.000591705
0.000622123
0.000662721
0.000713419
0.000774655
0.000849329
0.000935865
0.0010331
0.00113478
0.00123721
1.72929e-06
6.15087e-05
0.000202048
0.000360113
0.00050458
0.000625379
0.000722234
0.000797568
0.000854693
0.00089699
0.000927541
0.00094888
0.000963727
0.000974386
0.000981817
0.000985479
0.000986672
0.00098605
0.000984037
0.000980893
0.000976772
0.000971747
0.000965853
0.000959106
0.000951438
0.00094278
0.000933072
0.000922283
0.000910412
0.000897481
0.000883523
0.000868572
0.00085255
0.000834836
0.000814904
0.000794972
0.000774344
0.000752766
0.000730326
0.000707519
0.000684317
0.00066078
0.000637025
0.000613244
0.000589718
0.000566799
0.000544873
0.000524374
0.000505737
0.000489364
0.000474375
0.000460613
0.000453193
0.000449551
0.000449885
0.000455207
0.000467281
0.000487485
0.000517192
0.000558008
0.000608521
0.000670026
0.000747064
0.000837603
0.000939815
0.00105339
0.00117675
0.00130653
0.00143913
0.00157114
0.00170056
0.00182607
0.00194805
0.00206898
0.00218937
0.00230409
0.00241459
0.00252038
0.00262133
0.00271743
0.00280868
0.00289509
0.0029767
0.00305355
0.00312574
0.00319333
0.00325639
0.00331503
0.00336937
0.00341959
0.00346583
0.00350847
0.00354753
0.00358321
0.00361568
0.00364515
0.00367177
0.00369568
0.003717
0.00373582
0.00375224
0.00376632
0.00377815
0.00378779
0.00379526
0.0038006
0.00380383
0.00380489
0.00380391
0.00380095
0.0037959
0.0037891
0.00378063
0.00376712
0.00373846
0.00370834
0.0036767
0.00364377
0.00360953
0.00357424
0.0035381
0.00350126
0.0034639
0.00342595
0.00338802
0.00334948
0.00331047
0.00327077
0.00323021
0.00318862
0.00314585
0.00310181
0.00305651
0.0030098
0.00296166
0.00291203
0.00286097
0.00280862
0.00275499
0.0026999
0.00264323
0.00258499
0.00252535
0.00246448
0.00240263
0.00234025
0.00227768
0.00221508
0.00215257
0.00209032
0.00202761
0.00196381
0.00189786
0.00182792
0.00175179
0.00166725
0.00157363
0.00147152
0.00136453
0.00125446
0.00114469
0.00103534
0.000922835
0.000806957
0.000694057
0.000608812
0.000561725
0.000540533
0.000538023
0.000549898
0.000573554
0.000607655
0.000651551
0.000705261
0.000769088
0.000845737
0.000936014
0.00103957
0.00114875
0.00126193
2.06137e-06
6.83609e-05
0.000219448
0.000386481
0.000536259
0.000658936
0.000755098
0.000828048
0.0008818
0.000920252
0.000946751
0.000964441
0.000976275
0.000984631