/*--------------------------------*- C++ -*----------------------------------*\
  =========                 |
  \\      /  F ield         | OpenFOAM: The Open Source CFD Toolbox
   \\    /   O peration     | Website:  https://openfoam.org
    \\  /    A nd           | Version:  13
     \\/     M anipulation  |
\*---------------------------------------------------------------------------*/
FoamFile
{
    format      ascii;
    class       volScalarField;
    location    "200";
    object      omega;
}
// * * * * * * * * * * * * * * * * * * * * * * * * * * * * * * * * * * * * * //

dimensions      [0 0 -1 0 0 0 0];

internalField   nonuniform List<scalar> 
12225
(
31477.7
40545.6
41241.2
38786.3
39640.4
31477.7
44627.9
41183.6
31477.7
31477.7
41385.4
46264.8
41694.8
31477.7
31477.7
39760.6
43561
38882.5
0.392986
10497.9
15709.3
18633.3
18253.5
17824.5
19445.1
19536.4
19020
18222.1
19480
19902.3
20261.4
19922
18975.7
19113.3
19445.4
19110
0.377945
8068.94
4937.91
4983.72
5256.56
5963.91
6518.46
6684.49
6900.23
7906.11
8436.07
8624.75
8495.3
8379.88
8489.4
8485.56
8470.52
9219.43
0.377895
15601.5
7500.38
5412.25
5324.47
5002.66
6676.43
6337.13
7218.73
6922.45
6752.71
6954.85
6568.39
6327.86
7309.96
7041.83
7696.43
8061.79
0.378912
4529.65
3261.44
2586.22
2524.99
2448.18
2307.11
2758.05
3087.31
3089.74
3232.03
3291
4250.2
4237.09
4635.98
4774.4
4550.44
4317.84
138.695
907.091
945.53
959.432
817.693
978.895
1007.1
1066.31
1262.6
1364.65
1873.34
2670.5
2759.45
2866.01
2968.92
2967.98
2827.73
2726.66
294.425
516.72
524.288
519.941
514.271
636.708
706.57
786.122
834.818
947.885
1059.64
1157.05
1525.41
1618.15
1764.63
1855.23
1808.17
1773.88
399.778
433.089
437.125
459.5
491.6
579.428
696.325
836.533
857.821
860.36
881.297
902.177
994.953
1102.45
1130.72
1137.41
1143.53
1145.95
431.067
430.825
428.331
430.813
444.93
479.834
531.292
592.865
648.761
684.527
721.008
728.086
732.02
754.456
774.173
785.376
787.645
793.959
437.722
435.249
431.207
429.049
430.021
436.985
454.915
476.993
501.545
521.267
539.269
553.277
563.594
571.371
576.441
584.807
584.967
589.767
438.713
436.499
434.054
431.386
428.609
428.519
431.292
436.975
444.455
451.908
459.456
465.258
470.165
475.321
478.47
482.27
482.326
484
438.854
436.837
434.574
432.496
429.765
428.39
426.972
426.981
428.377
430.129
432.297
434.276
435.663
437.486
438.614
440.305
440.981
441.55
438.945
436.813
434.657
432.713
430.549
428.722
426.979
425.524
424.529
423.827
423.328
423.064
422.632
422.399
421.971
421.79
421.194
421.091
438.987
436.785
434.658
432.683
430.742
428.921
427.163
425.53
423.999
422.631
421.333
420.2
419.076
418.077
417.065
416.169
415.212
414.413
438.997
436.778
434.657
432.66
430.747
428.942
427.209
425.573
424.004
422.529
421.115
419.79
418.52
417.322
416.173
415.086
414.037
413.047
439
436.774
434.657
432.651
430.741
428.93
427.204
425.564
424.001
422.514
421.096
419.746
418.458
417.231
416.06
414.943
413.876
412.858
439
436.772
434.655
432.646
430.735
428.92
427.193
425.551
423.986
422.497
421.077
419.724
418.433
417.203
416.027
414.906
413.835
412.813
438.999
436.769
434.65
432.638
430.726
428.908
427.179
425.534
423.968
422.476
421.054
419.699
418.406
417.173
415.997
414.873
413.801
412.777
439
436.771
434.653
432.642
430.73
428.912
427.183
425.538
423.971
422.479
421.056
419.7
418.407
417.173
415.996
414.872
413.8
412.775
439.001
436.772
434.656
432.644
430.735
428.917
427.19
425.544
423.979
422.486
421.065
419.709
418.416
417.182
416.006
414.883
413.813
412.791
438.999
436.774
434.658
432.648
430.741
428.922
427.2
425.552
423.994
422.497
421.082
419.724
418.436
417.199
416.031
414.92
413.879
412.892
438.983
436.795
434.653
432.661
430.744
428.943
427.226
425.589
424.056
422.551
421.158
419.825
418.535
417.292
416.203
415.214
414.423
413.724
438.945
436.853
434.628
432.682
430.762
429.106
427.451
426.032
424.598
423.214
421.905
420.958
419.375
418.682
417.606
417.597
418.347
419.252
438.957
436.847
434.64
432.691
431.407
430.641
430.125
429.968
429.726
429.028
428.609
428.727
428.721
429.441
431.552
434.66
439.658
444.772
438.999
437.163
435.264
435.224
437.388
442.919
447.932
455.131
461.398
464.33
465.527
465.571
468.558
473.067
481.221
490.6
504.894
517.718
440.718
442.901
447.19
457.976
475.911
507.002
526.779
552.313
567.865
582.657
586.874
594.857
608.87
621.843
644.24
663.475
692.848
715.513
464.193
488.076
529.077
587.305
669.469
757.575
834.334
897.89
940.89
984.355
1021.12
1060.36
1106.64
1146.88
1207.94
1245.38
1313.61
1350.79
711.793
856.114
1110.44
1395.59
1696.71
1976.33
2212.98
2410.27
2575.04
2712.85
2840.97
2957.73
3089.43
3217.64
3374.96
3510.52
3671.73
3791.46
2866.14
4208.64
5950.27
7384.41
8441.77
9153.81
9615.9
9905.88
10042.9
10126.4
10124.2
10103.9
10062.7
10019.4
9990.92
9975.16
9986.87
10000.4
18117.5
22797.2
25339.4
26483.5
26849
26812.7
26673.2
26374.8
26039.7
25700.3
25374.3
25069.9
24790.1
24536.4
24304.9
24097.7
23908.6
23738.5
11463.2
2514.24
2516.41
2518.61
2520.83
2523.07
2525.32
2527.6
2529.9
2532.22
2534.57
2536.93
2539.31
2541.72
2544.15
2546.6
2549.08
2551.57
2554.09
2556.64
2559.2
2561.79
2564.41
2567.05
2569.71
2572.4
2575.12
2577.86
2580.62
2583.41
2586.23
2589.08
2591.95
2594.85
2597.77
2600.73
2603.71
2606.72
2609.76
2612.82
2615.92
2619.05
2622.2
2625.39
2628.61
2631.86
2635.14
2638.45
2641.79
2645.17
2648.58
2652.02
2655.5
2659.01
2662.55
2666.13
2669.74
2673.39
2677.08
2680.8
2684.56
2688.35
2692.19
2696.06
2699.97
2703.92
2707.91
2711.94
2716
2720.11
2724.27
2728.46
2732.69
3547.18
3425.13
3883.39
3620.1
4111.04
4326.83
4587.97
4779.59
4962.17
5109.76
5240.17
5346.72
5434.35
5503.11
5550.41
5559.55
5605.72
5687.57
5706.3
5765.32
5775.12
5800.66
5846.25
5844.63
5862.74
5880.69
5912.99
5912.08
5925.76
5952.84
5957.54
5967.69
5973.09
5971.63
5963.9
5969.52
5977.11
5990.54
5972.83
5979.76
5945.16
5941.09
5937.61
5934.45
5931.11
5933.25
5945.27
5911.3
5911.33
5917.08
5936.1
5903.14
5914.68
5951.48
5920.95
5890.93
5898.69
5913.5
5928.34
5950.79
5977.45
6050.75
6052.95
6089.91
6117.29
6144.95
6178.97
6196.08
6186.44
6238.79
6348.17
6325.51
6381.79
6524.86
6505.61
6570.41
6724.77
6703.7
6766.85
6835
6896.74
7047.86
7050.78
7059.42
7119.31
7190.26
7260.59
7443.8
7416.94
7612.63
7623.01
7883.57
7928.02
8042.84
8128.91
8226.99
8327.75
8417.93
8521.74
8606.76
8701.5
8644.59
8489.97
8299.85
8108.3
7909.98
7382.27
11463.2
2141.52
1100.9
872.193
809.465
769.718
733.639
705.04
684.692
671.676
664.629
663.189
664.851
668.747
675.35
683.842
693.454
703.879
714.981
726.292
737.851
749.395
760.575
774.379
792.637
813.141
834.313
854.685
873.242
888.846
902.007
911.135
917.497
916.398
913.362
909.993
894.559
884.776
869.422
851.739
833.145
814.614
797.566
782.866
773.131
766.332
761.281
757.523
754.75
752.537
754.42
759.558
766.966
775.825
785.37
794.364
802.369
804.576
804.463
804.208
807.847
816.225
851.909
904.21
995.038
1156.01
1399.29
1742.3
2096.51
2434.11
2708.75
2810.28
2916.44
3057.07
3055.65
3002.78
2914.12
2848.3
2726.2
2632.12
2534.54
2464.33
2393.79
2344.21
2296.91
2262.28
2230.9
2206.16
2184.13
2169.56
2158.83
2147.73
2137.34
2125.66
2113.14
2103.29
2100.82
2101.08
2102.15
2104.15
2109.17
2100.52
2102.36
2106.99
2101.24
2103.3
2112.75
2100.45
2102.53
2105.23
2109.16
2110.32
2122
2111.92
2126.42
2121.51
2128.71
2116.08
2122.98
2145.22
2135.4
2147.25
2174.38
2174.46
2178.98
2184.42
2190.95
2193.93
2198.66
2204.34
2215
2227.25
2241.52
2252.94
2266.41
2278.81
2295.44
2311.81
2328.97
2350.49
2366.24
2387.12
2409.63
2444.78
2449.91
2492.21
2519.88
2522.43
2557.21
2565.96
2561.4
2567.72
2570.81
2571.75
2583.43
2578.54
2590.05
2597.5
2613.97
2627.47
2653.88
2671.02
2703.97
2727.92
2762.68
2783.98
2813.38
2841.26
2869.9
2897.05
2938.98
2954.74
2979.48
2984.66
2951.79
2869.22
2785.3
2710.57
2682.55
2673.14
11463.2
2404.03
1365.89
1069.93
866.999
738.054
644.549
579.206
533.422
501.453
479.24
464.258
454.69
449.318
447.467
448.131
449.974
453.512
458.261
463.971
470.462
477.563
485.16
493.692
503.224
513.629
524.571
535.626
546.387
556.376
565.295
572.694
578.37
581.759
583.048
582.335
579.941
575.794
568.913
560.99
552.339
543.41
534.698
526.599
519.597
513.715
508.903
505.059
502.169
500.387
500.33
501.717
504.584
510.112
518.124
529.112
543.945
564.023
591.973
632.182
692.891
783.8
904.547
1053.3
1264.98
1543.06
1835.62
2107.86
2312.14
2462.3
2535.72
2560.26
2516.69
2334.75
2183.19
2043.82
1897.9
1817.4
1734.99
1679.33
1630.98
1597.42
1568.67
1548.37
1531.03
1518.36
1507.62
1499.41
1492.77
1487.69
1484.12
1480.52
1474.98
1468.34
1475.39
1467.62
1461.94
1463.29
1466.02
1476.44
1473.53
1470.16
1473.63
1483.46
1479.23
1484.15
1497.55
1496.96
1501.12
1504.18
1507.61
1504.69
1502.24
1505.99
1512.1
1527.11
1525.57
1522.58
1529.79
1551.53
1550.68
1571.78
1576.83
1582.11
1588.13
1593.8
1599.07
1602.46
1602.71
1596.31
1607.18
1637.94
1652.05
1664.19
1675.07
1686.97
1699.56
1712.6
1725.72
1739.74
1752.75
1766.36
1777.88
1785.35
1784.61
1800.03
1827.99
1826.24
1836.83
1851.79
1850.09
1849
1855.29
1851.7
1848.72
1847.16
1849.18
1852.57
1854.22
1857.85
1865.66
1874.89
1886.93
1900.16
1915
1929.8
1943.94
1966.13
1976.88
1983.24
1994.62
1994.49
1978.41
1937.69
1878.87
1818.24
1767.71
1718.7
1706.04
1710.58
11463.2
2993.07
1657.47
1146.2
880.195
717.51
611.219
540.244
491.583
457.672
433.993
417.548
406.257
398.774
394.239
391.98
391.656
392.604
394.334
397.212
400.989
405.527
410.764
416.683
423.227
430.307
437.772
445.428
453.057
460.419
467.283
473.401
478.567
482.574
485.338
486.863
487.122
486.287
483.906
480.492
476.294
471.708
466.97
462.321
458.001
454.183
451.021
448.665
447.331
447.319
449.153
452.749
459.562
470.485
486.946
511.05
545.503
592.404
655.676
739.507
852.851
1009.86
1203.59
1424.81
1652.41
1851.09
2001.04
2116.4
2177
2214.29
2163.16
2011.74
1868.41
1702.28
1599.62
1503.42
1432.65
1386.13
1344.82
1317.61
1295.94
1281.12
1269.66
1261.61
1255.67
1251.59
1247.92
1244.78
1243.81
1240.36
1242.21
1248.45
1248.67
1250.65
1253.14
1253.34
1253.55
1252.68
1253.18
1263.63
1263.59
1261.42
1272.3
1274.26
1274.13
1286.54
1290.62
1293.84
1298.01
1302.15
1306.41
1310.01
1313.95
1318.71
1323.6
1329.65
1333.5
1338.64
1344.98
1353.62
1359.95
1368.57
1374.88
1381.61
1388.59
1395.61
1402.69
1409.66
1416.53
1423.51
1433.75
1447.43
1459.48
1471.11
1482.49
1494.43
1506.73
1519.51
1532.39
1545.69
1558.94
1572.14
1584.28
1595.41
1603.65
1616.91
1631.04
1638.3
1648.69
1653.26
1660.73
1660.12
1665.89
1672.68
1671.72
1669.6
1666.9
1662.75
1657.35
1651.85
1649.23
1651.55
1652.26
1656.52
1662.15
1668.68
1672.68
1691.39
1692.79
1690.81
1682.86
1657.42
1617.38
1563.26
1505.56
1453.75
1407.89
1368.57
1335.26
1340.11
11463.2
3462.19
1722.06
1106.71
813.818
655.06
561.094
501.402
461.322
433.51
413.98
400.168
390.449
383.733
379.341
376.816
375.878
376.112
376.974
378.74
381.395
384.826
388.968
393.727
399.018
404.754
410.832
417.126
423.497
429.791
435.854
441.527
446.664
451.136
454.86
457.77
459.809
460.94
461.185
460.642
459.385
457.653
455.691
453.69
451.876
450.485
449.794
450.114
451.815
455.428
461.649
471.343
485.898
507.131
537.516
580.563
641.461
727.133
840.979
976.06
1128.75
1292.56
1460.46
1618.62
1747.07
1846.73
1934.45
1946.99
1910.87
1801.31
1685.74
1556.12
1444.56
1351.25
1288.11
1235.95
1199.33
1173.46
1153.89
1141.42
1132.62
1127.36
1124.28
1122.08
1121.77
1125.12
1126.18
1127.98
1130.29
1132.52
1135.6
1139.38
1142.15
1145.48
1148.69
1151.43
1154.15
1156.92
1160.17
1164.86
1167.73
1170.93
1175.93
1179.43
1183.35
1188.92
1192.98
1197.1
1201.52
1206
1210.51
1214.93
1219.52
1224.4
1229.41
1234.71
1239.7
1245.39
1251.56
1258.29
1264.88
1271.9
1278.69
1285.8
1293.18
1300.81
1308.73
1316.94
1325.44
1334.59
1345
1356.51
1368.19
1380.07
1392.23
1404.97
1418.23
1432.07
1446.4
1461.34
1476.65
1492.2
1507.63
1523.1
1538.32
1554.44
1570.69
1585.37
1600.71
1614.11
1626.74
1633.63
1649.06
1651.68
1663.78
1665.37
1662.72
1656.01
1645.31
1631.35
1615.18
1599.45
1584.47
1576.67
1569.98
1567.23
1568.42
1575.04
1571.67
1562.5
1531.01
1487.37
1432.23
1378.88
1326.77
1280.39
1235.45
1200.53
1158.25
1154.24
11463.2
3505.12
1587.15
982.344
727.814
597.624
521.958
474.114
442.289
420.379
404.976
393.99
386.06
380.558
377.009
375.036
374.381
374.725
375.763
377.642
380.296
383.644
387.609
392.121
397.112
402.516
408.255
414.242
420.383
426.572
432.704
438.665
444.35
449.656
454.5
458.678
462.213
465.094
467.336
468.996
470.187
471.074
471.855
472.74
473.986
475.9
478.871
483.402
490.169
500.038
514.192
534.261
562.497
601.842
655.928
728.445
820.096
926.624
1046.14
1172.34
1299.91
1424.49
1534.43
1625.08
1698.16
1721.87
1711.17
1656.91
1560.94
1463.03
1365.22
1275.3
1205.15
1152.94
1115.57
1087.27
1068.28
1055.6
1047.96
1045.52
1044.2
1043.28
1045.95
1048.66
1052.52
1057.29
1061.57
1065.93
1070.3
1074.57
1078.94
1083.32
1087.4
1091.51
1095.46
1099.21
1102.86
1106.48
1110.32
1114.42
1118.13
1122.05
1126.34
1130.25
1134.34
1138.76
1142.86
1147.04
1151.35
1155.71
1160.09
1164.49
1168.97
1173.6
1178.36
1183.29
1188.26
1193.6
1199.27
1205.19
1211.26
1217.57
1224.01
1230.74
1237.77
1245.11
1252.81
1260.89
1269.39
1278.51
1288.44
1299.07
1310.2
1321.85
1334.1
1347.09
1360.83
1375.33
1390.61
1406.72
1423.57
1441.13
1459.32
1478.28
1497.93
1518.33
1539.23
1560.23
1581.7
1603
1623.86
1644.07
1664.12
1681.25
1690.31
1709.74
1713.21
1708.97
1695.62
1673.26
1643.34
1607.13
1570.15
1537.52
1512.11
1494.15
1481.61
1471.4
1451.37
1420.18
1368.75
1318.23
1271.87
1230.53
1189.23
1152.94
1114.2
1085.99
1046.65
1036.68
11463.2
3173.3
1380.55
876.879
669.644
562.74
499.872
460.074
433.703
415.521
402.688
393.724
387.575
383.613
381.284
380.245
380.266
381.135
382.778
385.129
388.12
391.703
395.842
400.496
405.624
411.178
417.106
423.347
429.834
436.492
443.244
450.005
456.692
463.221
469.515
475.511
481.134
486.33
491.088
495.481
499.621
503.682
507.892
512.543
517.998
524.713
533.293
544.483
559.183
578.68
604.501
638.439
682.403
737.96
805.608
884.343
971.647
1065.1
1163.25
1260.56
1352.09
1434.38
1507.91
1555.26
1558.73
1527.81
1458.97
1390.35
1310.39
1234.47
1163.22
1106.33
1064.89
1034.76
1014.04
1000.61
994.093
992.742
991.79
992.354
994.314
999.283
1005.22
1011.32
1017.7
1024.18
1030.4
1036.42
1042.23
1047.8
1053.18
1058.39
1063.36
1068.16
1072.77
1077.19
1081.43
1085.57
1089.69
1093.81
1097.77
1101.77
1105.82
1109.74
1113.68
1117.67
1121.58
1125.51
1129.48
1133.47
1137.48
1141.49
1145.55
1149.67
1153.88
1158.19
1162.6
1167.22
1172.05
1177.06
1182.24
1187.61
1193.15
1198.93
1204.98
1211.33
1218
1225.04
1232.48
1240.46
1249.07
1258.25
1267.97
1278.31
1289.44
1301.29
1313.96
1327.44
1341.75
1356.93
1372.95
1389.83
1407.51
1425.98
1445.33
1465.56
1486.55
1508.19
1530.43
1552.99
1575.5
1598.13
1620.53
1641.12
1659.6
1672.83
1686.21
1688.29
1680.02
1658.81
1623.45
1575.38
1519.97
1464.35
1417.32
1382.47
1355.2
1329.83
1287.81
1240.78
1196.57
1156.35
1119.69
1087.89
1058.51
1034.26
1005.42
985.161
953.922
944.275
11463.2
2733.06
1225.2
808.873
633.807
542.483
488.74
454.489
431.51
415.915
405.456
398.488
394.02
391.406
390.191
389.986
390.679
392.255
394.574
397.56
401.164
405.35
410.09
415.361
421.139
427.396
434.101
441.216
448.696
456.489
464.533
472.76
481.094
489.454
497.758
505.918
513.851
521.549
529.057
536.424
543.767
551.311
559.358
568.278
578.525
590.641
605.265
623.109
645.092
672.158
705.13
744.862
792.016
846.614
907.879
975.688
1048.42
1123.47
1196.9
1267.34
1333.97
1390.19
1406.52
1407.86
1365.19
1316.84
1257.73
1201.14
1140.09
1084.13
1037.66
1003.55
979.636
964.447
956.448
952.295
951.978
952.187
955.55
960.553
967.13
974.705
982.741
990.848
998.923
1006.83
1014.43
1021.7
1028.63
1035.21
1041.48
1047.44
1053.12
1058.54
1063.71
1068.64
1073.36
1077.89
1082.3
1086.59
1090.76
1094.87
1098.92
1102.86
1106.75
1110.6
1114.38
1118.13
1121.86
1125.57
1129.26
1132.94
1136.6
1140.28
1144
1147.78
1151.62
1155.57
1159.66
1163.89
1168.24
1172.75
1177.41
1182.26
1187.34
1192.65
1198.23
1204.11
1210.3
1216.88
1223.91
1231.38
1239.27
1247.61
1256.45
1265.8
1275.67
1286.14
1297.22
1308.97
1321.37
1334.42
1348.12
1362.42
1377.38
1392.96
1409.07
1425.63
1442.53
1459.62
1476.56
1493.26
1509.23
1524.07
1534.69
1543.47
1549.26
1547.92
1538.31
1518.04
1485.44
1440.76
1387.77
1333.46
1284.92
1246.61
1210.5
1172.21
1133.01
1094.73
1058.4
1025.23
995.135
969.328
945.843
927.801
907.883
894.158
870.931
864.112
11463.2
2482.32
1166.75
786.424
622.412
536.825
486.434
454.87
434.585
421.304
412.655
407.193
404.018
402.49
402.04
402.466
403.94
406.244
409.282
412.993
417.337
422.291
427.838
433.969
440.674
447.942
455.758
464.1
472.936
482.222
491.902
501.907
512.159
522.567
533.038
543.495
553.914
564.267
574.484
584.556
594.633
604.936
615.753
627.407
640.268
654.809
671.595
691.353
714.821
742.387
774.463
811.583
854.174
901.924
954.1
1009.51
1065.93
1123.54
1180.91
1231.41
1255.02
1268.53
1264.65
1238.47
1199.89
1159.1
1114.56
1070.08
1025.88
989.459
961.925
943.903
932.207
926.269
923.316
923.508
924.545
928.815
935.038
942.61
951.183
960.366
969.808
979.246
988.532
997.549
1006.21
1014.47
1022.33
1029.77
1036.82
1043.48
1049.79
1055.78
1061.46
1066.87
1072
1076.89
1081.59
1086.11
1090.47
1094.71
1098.81
1102.79
1106.66
1110.42
1114.09
1117.67
1121.19
1124.64
1128.03
1131.38
1134.65
1137.88
1141.09
1144.3
1147.54
1150.8
1154.14
1157.55
1161.04
1164.62
1168.3
1172.09
1176.01
1180.07
1184.29
1188.68
1193.27
1198.07
1203.1
1208.4
1213.94
1219.75
1225.83
1232.18
1238.83
1245.81
1253.13
1260.82
1268.89
1277.34
1286.15
1295.3
1304.78
1314.52
1324.45
1334.48
1344.52
1354.44
1363.99
1372.96
1381.01
1387.82
1392.02
1394.44
1394.39
1390.02
1380.05
1362.08
1334.58
1297.36
1252.61
1206.43
1162.96
1120.7
1082.07
1046.51
1011.99
978.968
948.338
920.684
895.823
874.616
855.557
841.073
825.977
816.775
799.73
795.412
11463.2
2327.34
1118.68
767.361
615.62
535.405
488.797
460.046
441.804
430.168
422.891
418.615
416.449
415.622
415.605
416.839
419.031
422.053
425.827
430.304
435.456
441.268
447.729
454.838
462.596
471.003
480.053
489.728
499.996
510.805
522.087
533.751
545.695
557.799
569.937
581.992
593.879
605.485
616.731
627.621
638.25
648.834
659.681
671.172
683.74
697.816
713.902
732.575
754.305
779.333
808.003
840.569
876.909
916.248
958.362
1003
1049.93
1093.07
1125.38
1143.64
1144.64
1146.05
1131.75
1107.54
1078.65
1047.9
1015.83
985.3
958.346
936.928
921.386
911.475
906.151
904.446
904.153
905.321
909.517
915.766
923.571
932.497
942.2
952.364
962.719
973.05
983.201
993.059
1002.55
1011.62
1020.25
1028.44
1036.22
1043.54
1050.44
1056.97
1063.16
1069.02
1074.55
1079.81
1084.81
1089.6
1094.17
1098.55
1102.74
1106.76
1110.62
1114.33
1117.89
1121.32
1124.62
1127.81
1130.9
1133.91
1136.8
1139.59
1142.32
1145
1147.65
1150.22
1152.78
1155.33
1157.89
1160.45
1163.03
1165.62
1168.23
1170.86
1173.53
1176.25
1179.03
1181.88
1184.81
1187.84
1190.98
1194.21
1197.55
1201
1204.56
1208.24
1212.05
1216.01
1220.11
1224.35
1228.73
1233.21
1237.8
1242.41
1246.93
1251.35
1255.63
1259.71
1263.46
1266.74
1269.56
1271.4
1272.12
1271.88
1270.2
1266.02
1258.04
1242.8
1218.64
1185.08
1143.63
1098.82
1056.5
1012.96
976.28
943.438
912.809
884.614
859.18
836.518
816.326
799.159
783.929
772.341
760.69
754.177
741.637
738.908
11463.2
2335.05
1119.93
768.101
617.471
539.913
495.403
468.402
451.638
441.269
435.092
431.829
430.403
430.044
430.577
432.465
435.337
439.066
443.586
448.864
454.881
461.624
469.078
477.211
486.034
495.549
505.754
516.623
528.108
540.132
552.594
565.37
578.321
591.297
604.154
616.757
628.999
640.804
652.159
663.095
673.687
684.079
694.52
705.34
716.904
729.576
743.785
759.72
777.721
798.261
821.685
848.18
877.709
909.572
942.735
975.277
1003.8
1026.57
1041.6
1047.69
1050.04
1048.07
1036.7
1020.73
1002.66
982.514
961.399
941.341
923.943
910.414
901.009
895.686
893.634
893.304
894.165
897.885
903.443
910.636
919.16
928.683
938.906
949.561
960.419
971.286
981.998
992.443
1002.54
1012.24
1021.51
1030.33
1038.7
1046.59
1054.06
1061.13
1067.82
1074.14
1080.12
1085.79
1091.15
1096.22
1101.04
1105.6
1109.92
1114.01
1117.88
1121.56
1125.04
1128.34
1131.46
1134.42
1137.22
1139.86
1142.34
1144.69
1146.91
1149.01
1151.02
1152.9
1154.68
1156.37
1158
1159.51
1160.94
1162.3
1163.6
1164.81
1165.96
1167.08
1168.17
1169.23
1170.28
1171.32
1172.35
1173.38
1174.41
1175.42
1176.43
1177.43
1178.41
1179.37
1180.32
1181.25
1182.16
1183.02
1183.9
1184.67
1185.13
1185.41
1185.6
1185.66
1185.56
1185.27
1184.85
1184.12
1183.05
1181.47
1178.63
1173.27
1163.55
1147.12
1122.12
1088.77
1048.9
1006.85
963.281
922.907
888.132
857.698
830.608
806.832
786.168
768.079
752.174
738.741
727.004
718.052
709.3
704.579
695.658
694.014
11463.2
2332.12
1120.28
770.896
622.525
546.858
503.974
478.384
462.856
453.574
448.404
445.906
444.982
444.86
446.324
448.934
452.521
456.996
462.317
468.472
475.461
483.269
491.83
501.089
511.003
521.535
532.714
544.526
556.919
569.811
583.102
596.675
610.415
624.21
637.967
651.601
665.04
678.24
691.236
704.074
716.812
729.195
741.202
753.028
764.878
776.972
789.493
802.391
816.269
831.765
848.904
867.665
887.979
909.373
929.887
949.748
967.778
982.673
993.53
998.826
999.69
996.327
989.757
979.673
967.468
954.301
939.828
926.018
913.99
904.578
898.149
894.778
893.694
893.88
895.745
899.982
905.742
913.039
921.608
931.158
941.419
952.147
963.135
974.2
985.178
995.958
1006.45
1016.6
1026.37
1035.71
1044.62
1053.09
1061.13
1068.75
1075.96
1082.78
1089.21
1095.27
1100.99
1106.38
1111.44
1116.2
1120.66
1124.83
1128.73
1132.38
1135.78
1138.95
1141.9
1144.62
1147.12
1149.4
1151.48
1153.34
1155.01
1156.49
1157.78
1158.92
1159.89
1160.68
1161.33
1161.85
1162.25
1162.54
1162.73
1162.68
1162.55
1162.31
1161.97
1161.55
1161.06
1160.49
1159.84
1159.13
1158.34
1157.47
1156.52
1155.47
1154.32
1153.05
1151.67
1150.18
1148.56
1146.81
1144.98
1142.95
1140.7
1138.32
1135.86
1133.37
1130.89
1128.47
1126.15
1123.94
1121.57
1118.61
1114.05
1106.48
1093.88
1074.52
1047.18
1013
973.407
932.749
887.654
847.629
813.483
785.216
761.606
742.109
725.942
712.027
700.057
690.066
681.541
675.041
668.999
665.991
659.954
659.089
11463.2
2332.32
1122.63
775.475
628.771
554.69
513.227
488.918
474.555
466.358
462.205
460.416
459.971
460.532
462.775
466.176
470.578
475.913
482.168
489.358
497.499
506.577
516.502
527.116
538.262
549.946
562.186
575.013
588.451
602.477
617.045
632.1
647.581
663.433
679.636
696.187
713.094
730.091
747.137
764.286
781.445
798.089
814.094
829.49
844.236
858.271
871.534
884.178
896.227
907.643
918.63
929.436
940.335
951.892
963.953
975.974
987.471
997.343
1003.74
1005.8
1002.66
998.108
990.958
981.816
971.208
959.728
946.956
934.825
924.147
915.615
909.697
906.378
905.149
905.327
907.25
911.139
916.727
923.762
932.007
941.228
951.196
961.698
972.543
983.564
994.597
1005.53
1016.27
1026.73
1036.87
1046.64
1056.01
1064.96
1073.48
1081.57
1089.23
1096.46
1103.27
1109.69
1115.71
1121.35
1126.62
1131.53
1136.09
1140.3
1144.17
1147.73
1150.98
1153.95
1156.63
1159.04
1161.16
1163.01
1164.59
1165.91
1166.98
1167.8
1168.36
1168.74
1168.96
1168.88
1168.58
1168.18
1167.64
1166.94
1166.08
1165.07
1163.91
1162.61
1161.17
1159.62
1157.98
1156.17
1154.23
1152.18
1150.01
1147.72
1145.29
1142.72
1140.01
1137.14
1134.09
1130.89
1127.52
1123.98
1120.3
1116.46
1112.47
1108.4
1104.32
1100.3
1096.45
1092.85
1089.44
1086.08
1082.44
1077.83
1070.99
1060.5
1044.41
1021.64
991.53
955.947
914.845
870.265
823.038
782.257
748.906
723.325
703.429
688.185
676.195
666.054
657.689
650.872
645.26
641.214
637.901
636.646
632.792
632.354
11463.2
2333.22
1125.66
780.221
635.075
562.402
522.276
499.235
486.077
479.102
475.897
474.771
474.74
476.677
479.975
484.406
489.867
496.329
503.815
512.368
522.019
532.734
544.375
556.75
569.716
583.183
597.176
611.848
627.237
643.449
660.535
678.531
697.436
717.026
737.322
758.386
780.046
801.782
823.489
845.052
866.221
886.995
907.318
926.99
945.795
963.533
980.037
995.187
1008.88
1021.04
1031.63
1040.64
1047.99
1053.53
1057.92
1061.27
1063.1
1063.16
1060.74
1056.23
1049.58
1041.11
1031.05
1020.07
1008.37
996.243
984.345
972.838
962.108
952.78
945.846
941.397
938.78
937.71
938.363
940.843
945.045
950.69
957.597
965.576
974.423
983.953
993.985
1004.35
1014.91
1025.52
1036.08
1046.49
1056.67
1066.55
1076.08
1085.24
1093.99
1102.32
1110.22
1117.68
1124.71
1131.3
1137.46
1143.19
1148.5
1153.39
1157.86
1161.91
1165.56
1168.83
1171.74
1174.3
1176.52
1178.41
1179.99
1181.26
1182.24
1182.94
1183.38
1183.53
1183.31
1182.84
1182.22
1181.37
1180.33
1179.12
1177.74
1176.18
1174.44
1172.54
1170.48
1168.26
1165.89
1163.37
1160.72
1157.93
1155.02
1151.97
1148.79
1145.48
1142.01
1138.4
1134.64
1130.67
1126.51
1122.17
1117.66
1112.98
1108.17
1103.22
1098.19
1093.13
1088.13
1083.24
1078.52
1074.03
1069.57
1065.01
1059.73
1052.85
1042.92
1028.7
1008.46
981.876
948.278
909.625
865.239
814.173
764.409
723.527
692.159
670.107
654.18
643.086
634.843
628.148
623.138
619.269
616.25
615.527
614.967
614.132
611.885
611.783
11463.2
2334.06
1128.15
784.322
640.682
569.354
530.582
508.903
497.229
491.658
489.622
489.228
490.471
493.779
498.466
504.329
511.301
519.404
528.704
539.283
551.173
564.283
578.402
593.31
608.899
625.182
642.246
660.129
678.978
698.783
719.677
741.828
765.071
789.001
813.654
838.928
864.593
890.635
916.95
943.33
969.538
995.365
1020.58
1044.94
1068.19
1090.09
1110.43
1129.01
1145.65
1160.2
1172.56
1182.63
1190.4
1195.39
1197.54
1197.27
1194.97
1190.12
1182.82
1173.92
1163.72
1151.68
1137.82
1122.64
1107.03
1091.52
1076.55
1062.35
1049.09
1036.94
1026.7
1018.6
1011.98
1006.63
1002.81
1001.73
1002.47
1004.66
1008.33
1013.37
1019.57
1026.77
1034.79
1043.43
1052.55
1062
1071.62
1081.27
1090.85
1100.26
1109.43
1118.3
1126.81
1134.94
1142.64
1149.9
1156.71
1163.06
1168.94
1174.35
1179.28
1183.74
1187.7
1191.19
1194.22
1196.83
1199.06
1200.91
1202.4
1203.54
1204.37
1204.9
1205.14
1205.1
1204.7
1203.96
1202.96
1201.75
1200.34
1198.72
1196.89
1194.89
1192.7
1190.33
1187.78
1185.06
1182.18
1179.14
1175.93
1172.58
1169.09
1165.46
1161.71
1157.82
1153.8
1149.65
1145.35
1140.91
1136.3
1131.54
1126.63
1121.56
1116.34
1110.98
1105.5
1099.94
1094.34
1088.74
1083.21
1077.76
1072.25
1066.75
1061.04
1054.71
1046.91
1036.62
1022.43
1003.5
978.437
947.438
909.897
865.848
815.094
759.491
709.018
670.059
642.333
624.517
612.639
605.352
600.413
596.957
595.073
593.76
593.694
593.438
593.6
594.24
594.527
595.363
11463.7
2334.4
1129.89
787.598
645.49
575.58
538.321
518.342
508.446
504.406
503.422
504.527
508.152
513.495
520.248
528.292
537.637
548.378
560.659
574.599
590.168
607.121
625.128
643.963
663.629
684.302
705.77
728.257
751.807
776.046
801.332
827.768
855.209
883.701
913.148
943.385
974.215
1005.46
1036.89
1068.29
1099.41
1129.98
1159.77
1188.5
1215.93
1241.8
1265.89
1287.96
1307.81
1325.25
1340.11
1352.28
1361.69
1367.75
1370.35
1369.99
1367.01
1361.18
1352.71
1342.03
1329.63
1315.14
1298.52
1280.1
1260.56
1240.66
1221.13
1202.63
1185.64
1170.31
1156.2
1143.34
1132.04
1122.27
1113.95
1107.52
1102.37
1098.37
1096.17
1096.13
1097.57
1100.63
1104.99
1110.41
1116.78
1123.83
1131.33
1139.11
1147.02
1154.96
1162.79
1170.43
1177.79
1184.8
1191.39
1197.53
1203.22
1208.48
1213.29
1217.61
1221.45
1224.79
1227.63
1229.95
1231.79
1233.27
1234.36
1235.12
1235.52
1235.54
1235.34
1234.83
1234.05
1232.95
1231.57
1229.91
1228.02
1225.91
1223.6
1221.1
1218.4
1215.53
1212.48
1209.26
1205.88
1202.33
1198.63
1194.77
1190.76
1186.62
1182.34
1177.93
1173.41
1168.78
1164.03
1159.17
1154.18
1149.06
1143.8
1138.42
1132.91
1127.26
1121.5
1115.61
1109.61
1103.55
1097.44
1091.31
1085.21
1078.93
1072.42
1065.53
1057.74
1048.44
1036.69
1021.46
1001.75
977.231
946.861
910.727
867.848
818.508
760.501
703.973
655.937
621.248
598.687
585.327
577.419
573.49
571.756
571.285
572.19
572.923
574.513
576.94
578.591
580.829
581.711
581.925
11462.8
2334.56
1131.43
790.655
650.18
581.882
546.558
528.849
521.138
518.902
519.905
524.22
530.81
539.214
549.237
560.88
574.288
589.696
607.342
627.249
649.007
672.044
696.149
720.858
746.134
772.139
798.543
825.777
854.046
883.7
914.744
947.03
980.409
1014.74
1049.85
1085.53
1121.55
1157.7
1193.75
1229.45
1264.56
1298.86
1332.1
1364.05
1394.47
1423.13
1449.81
1474.29
1496.36
1515.82
1532.5
1546.24
1556.94
1564.31
1568.04
1568.55
1565.92
1560.14
1551.41
1539.95
1526.04
1509.85
1491.58
1471.38
1449.54
1426.59
1403.15
1379.87
1357.32
1336.05
1316.4
1298.62
1282.99
1269.59
1258.17
1247.58
1238.06
1229.71
1222.56
1216.64
1212
1209.58
1209.03
1209.74
1212.06
1215.25
1219.14
1223.5
1228.18
1233.17
1238.2
1243.17
1247.98
1252.52
1256.7
1260.41
1263.8
1266.88
1269.63
1271.92
1273.85
1275.3
1276.28
1276.74
1276.7
1276.59
1276.05
1275.31
1274.22
1272.84
1271.22
1269.37
1267.3
1264.99
1262.46
1259.71
1256.76
1253.63
1250.32
1246.84
1243.2
1239.39
1235.44
1231.33
1227.08
1222.69
1218.16
1213.49
1208.68
1203.75
1198.71
1193.57
1188.33
1183.01
1177.59
1172.07
1166.45
1160.72
1154.89
1148.94
1142.88
1136.71
1130.43
1124.02
1117.47
1110.83
1104.04
1097.01
1089.62
1081.99
1073.75
1064.29
1052.95
1039.01
1021.63
1000.15
974.333
944.11
908.927
868.419
819.959
764.058
703.77
649.903
607.056
578.207
561.539
552.148
548.043
547.28
548.39
549.849
553.806
556.611
560.787
565.138
567.907
571.124
571.543
571.859
11461.8
2336.06
1133.53
794.075
655.449
589.336
556.75
541.983
537.078
537.459
542.608
551.018
561.955
575.096
590.395
608.088
628.646
652.414
679.298
708.854
739.699
770.303
801.124
831.907
862.872
894.521
927.518
962.059
998.055
1035.38
1073.84
1113.21
1153.23
1193.68
1234.31
1274.89
1315.2
1355.01
1394.11
1432.31
1469.41
1505.23
1539.6
1572.33
1603.26
1632.22
1659.03
1683.53
1705.53
1724.86
1741.36
1754.89
1765.33
1772.53
1776.34
1776.82
1773.88
1767.66
1758.47
1746.46
1731.81
1714.74
1695.43
1674.08
1650.91
1626.29
1600.66
1574.5
1548.32
1522.6
1497.8
1474.31
1452.49
1432.63
1414.84
1399.13
1385.65
1374.17
1363.7
1353.87
1344.91
1337.22
1331.64
1327.67
1325.06
1323.55
1322.88
1322.8
1323.07
1324.2
1325.35
1326.59
1327.81
1328.89
1329.64
1329.82
1330.08
1330.27
1330.37
1329.88
1329.46
1328.47
1327.13
1325.42
1323.44
1321.21
1318.79
1316.16
1313.34
1310.35
1307.21
1303.94
1300.53
1296.97
1293.24
1289.35
1285.32
1281.16
1276.86
1272.41
1267.83
1263.12