/*--------------------------------*- C++ -*----------------------------------*\
  =========                 |
  \\      /  F ield         | OpenFOAM: The Open Source CFD Toolbox
   \\    /   O peration     | Website:  https://openfoam.org
    \\  /    A nd           | Version:  13
     \\/     M anipulation  |
\*---------------------------------------------------------------------------*/
FoamFile
{
    format      ascii;
    class       volScalarField;
    location    "200";
    object      p;
}
// * * * * * * * * * * * * * * * * * * * * * * * * * * * * * * * * * * * * * //

dimensions      [0 2 -2 0 0 0 0];

internalField   nonuniform List<scalar> 
12225
(
-4.88745
-5.76647
-6.21557
-6.37667
-6.52331
-6.69345
-6.83874
-6.95437
-7.06515
-7.17404
-7.23775
-7.30412
-7.37087
-7.43728
-7.50653
-7.57867
-7.65639
-7.75659
-5.16342
-5.80803
-6.19835
-6.35752
-6.5011
-6.66546
-6.80697
-6.92039
-7.03304
-7.13904
-7.20235
-7.27301
-7.34329
-7.41129
-7.47826
-7.54629
-7.61573
-7.6691
-5.38764
-5.80785
-6.18076
-6.36511
-6.51441
-6.67351
-6.81081
-6.92369
-7.02915
-7.11693
-7.20442
-7.27582
-7.34242
-7.40628
-7.46857
-7.52981
-7.58662
-7.62555
-5.57487
-5.87685
-6.17927
-6.36973
-6.5179
-6.66395
-6.80048
-6.91419
-7.01819
-7.10914
-7.19236
-7.26272
-7.32768
-7.39011
-7.45045
-7.50781
-7.55909
-7.59563
-5.73217
-5.9173
-6.18672
-6.37659
-6.52108
-6.66088
-6.79843
-6.9129
-7.01212
-7.09659
-7.17631
-7.24664
-7.31166
-7.37329
-7.43163
-7.48561
-7.53298
-7.56842
-5.81827
-5.98536
-6.20822
-6.39226
-6.53343
-6.6681
-6.79884
-6.90832
-7.00141
-7.08322
-7.16063
-7.23106
-7.29587
-7.3563
-7.41247
-7.4636
-7.50814
-7.54296
-5.89097
-6.0345
-6.23539
-6.40946
-6.54437
-6.67031
-6.79126
-6.89604
-6.9867
-7.06818
-7.1449
-7.2155
-7.27998
-7.33915
-7.39337
-7.44222
-7.48476
-7.51922
-5.97391
-6.08254
-6.26501
-6.42645
-6.55372
-6.67123
-6.78468
-6.88658
-6.97625
-7.05726
-7.13268
-7.2019
-7.26472
-7.3219
-7.37395
-7.42073
-7.46169
-7.49587
-6.05772
-6.14145
-6.29669
-6.44357
-6.56378
-6.67449
-6.78181
-6.88025
-6.96783
-7.04703
-7.12016
-7.18725
-7.24824
-7.30372
-7.35416
-7.39953
-7.43954
-7.47374
-6.13512
-6.2013
-6.32997
-6.46174
-6.57491
-6.67948
-6.78082
-6.87494
-6.95971
-7.0366
-7.10741
-7.1725
-7.23191
-7.28598
-7.33506
-7.3792
-7.4184
-7.45251
-6.20481
-6.25669
-6.36291
-6.48037
-6.58623
-6.68478
-6.78014
-6.86969
-6.95136
-7.02583
-7.09446
-7.15766
-7.21549
-7.26816
-7.31593
-7.35895
-7.39741
-7.43132
-6.26212
-6.304
-6.39356
-6.49847
-6.5971
-6.68992
-6.77984
-6.86506
-6.94367
-7.01581
-7.0824
-7.14382
-7.20013
-7.25148
-7.29811
-7.34022
-7.37807
-7.41169
-6.31338
-6.34794
-6.42377
-6.517
-6.60829
-6.6954
-6.78002
-6.86092
-6.93633
-7.00602
-7.07051
-7.1301
-7.18485
-7.23489
-7.28042
-7.32167
-7.35891
-7.39222
-6.36543
-6.39379
-6.45694
-6.53821
-6.62125
-6.70197
-6.78081
-6.85684
-6.92852
-6.99528
-7.05729
-7.11473
-7.16768
-7.21622
-7.26053
-7.30082
-7.33736
-7.37024
-6.41624
-6.43938
-6.49144
-6.56117
-6.63544
-6.70926
-6.78201
-6.8528
-6.92029
-6.98368
-7.04287
-7.0979
-7.14882
-7.19568
-7.23863
-7.27784
-7.31358
-7.34595
-6.46289
-6.4818
-6.52469
-6.58405
-6.64965
-6.71646
-6.78307
-6.84851
-6.91153
-6.97129
-7.02743
-7.07988
-7.1286
-7.17366
-7.21512
-7.25319
-7.28802
-7.31981
-6.50129
-6.51698
-6.55287
-6.60375
-6.66165
-6.72195
-6.78284
-6.84321
-6.9019
-6.95802
-7.0111
-7.06093
-7.10745
-7.15066
-7.19062
-7.22746
-7.26136
-7.29246
-6.52542
-6.539
-6.57033
-6.61543
-6.6677
-6.72297
-6.77933
-6.83561
-6.8907
-6.94369
-6.99408
-7.04157
-7.08608
-7.12758
-7.16612
-7.20179
-7.23475
-7.26513
-6.52576
-6.53866
-6.56859
-6.61177
-6.66188
-6.71491
-6.76909
-6.82327
-6.87637
-6.92752
-6.97619
-7.02212
-7.06522
-7.10545
-7.14289
-7.17763
-7.20981
-7.2396
-6.4942
-6.50877
-6.54214
-6.58913
-6.64222
-6.69728
-6.75296
-6.80825
-6.8621
-6.91359
-6.96232
-7.00808
-7.05089
-7.09071
-7.12771
-7.16197
-7.19371
-7.22312
-6.44827
-6.46595
-6.50587
-6.56008
-6.61877
-6.67796
-6.737
-6.79512
-6.85104
-6.90396
-6.95358
-6.99992
-7.04299
-7.0829
-7.11978
-7.15388
-7.18536
-7.21453
-6.38901
-6.41203
-6.46257
-6.52732
-6.59341
-6.65798
-6.72175
-6.78385
-6.84269
-6.89756
-6.9485
-6.99568
-7.03923
-7.07932
-7.11621
-7.15022
-7.18159
-7.21065
-6.31848
-6.35015
-6.41629
-6.49419
-6.56825
-6.63881
-6.70821
-6.77497
-6.83708
-6.89415
-6.9466
-6.99474
-7.03879
-7.07899
-7.11577
-7.14951
-7.18058
-7.2093
-6.23743
-6.2831
-6.37097
-6.46322
-6.54449
-6.62136
-6.69712
-6.76873
-6.83402
-6.8933
-6.9473
-6.99642
-7.0409
-7.08119
-7.11783
-7.15134
-7.18206
-7.21045
-6.14566
-6.21355
-6.33046
-6.43639
-6.52268
-6.60582
-6.68832
-6.76456
-6.83268
-6.89408
-6.94975
-6.99982
-7.04452
-7.08459
-7.1209
-7.15404
-7.18431
-7.21213
-6.04312
-6.14343
-6.29609
-6.41425
-6.50386
-6.59298
-6.68169
-6.76168
-6.83184
-6.89494
-6.95256
-7.00423
-7.0497
-7.08994
-7.12621
-7.15925
-7.18949
-7.21756
-5.93122
-6.07738
-6.26414
-6.39047
-6.48547
-6.58286
-6.67778
-6.761
-6.83257
-6.89596
-6.95398
-7.00632
-7.05225
-7.09257
-7.12849
-7.16088
-7.19038
-7.21811
-5.80113
-6.03553
-6.24397
-6.36308
-6.46328
-6.57223
-6.67543
-6.76424
-6.84041
-6.90659
-6.96569
-7.01836
-7.06481
-7.10565
-7.14156
-7.17328
-7.20172
-7.22927
-5.60332
-6.01086
-6.25028
-6.34975
-6.44673
-6.56049
-6.66647
-6.75665
-6.83509
-6.90452
-6.96481
-7.01689
-7.06294
-7.10397
-7.13966
-7.17002
-7.19634
-7.22028
-5.33871
-5.94032
-6.24583
-6.3557
-6.46227
-6.58466
-6.69497
-6.78617
-6.86494
-6.93569
-6.99568
-7.04593
-7.09018
-7.12982
-7.16349
-7.19037
-7.2122
-7.22906
-8.12374
-8.12387
-8.12403
-8.12313
-8.11982
-8.11458
-8.10953
-8.10683
-8.10777
-8.11184
-8.11832
-8.12681
-8.13706
-8.14853
-8.16071
-8.17302
-8.18523
-8.19695
-8.20803
-8.21822
-8.22752
-8.23573
-8.24287
-8.24881
-8.25372
-8.25769
-8.26092
-8.26343
-8.26545
-8.26704
-8.26839
-8.26959
-8.27081
-8.27197
-8.27321
-8.27456
-8.27625
-8.27834
-8.28097
-8.28405
-8.28763
-8.29165
-8.2962
-8.30111
-8.30639
-8.31191
-8.3177
-8.32358
-8.32949
-8.33519
-8.34064
-8.3457
-8.35037
-8.35458
-8.35838
-8.36176
-8.36491
-8.36789
-8.37094
-8.37416
-8.37781
-8.38197
-8.3869
-8.39257
-8.39897
-8.40578
-8.41279
-8.41982
-8.42712
-8.43462
-8.44301
-8.45287
-8.46815
-8.49433
-8.5311
-8.58311
-8.67139
-8.80366
-8.97402
-9.16907
-9.37457
-9.57551
-9.76107
-9.92336
-10.059
-10.1668
-10.2484
-10.306
-10.3425
-10.3602
-10.3612
-10.3474
-10.3207
-10.2824
-10.2339
-10.1761
-10.1099
-10.0361
-9.95544
-9.86839
-9.7754
-9.67686
-9.57308
-9.46449
-9.35143
-9.23431
-9.11334
-8.98891
-8.86121
-8.73068
-8.59746
-8.46182
-8.32373
-8.18362
-8.04176
-7.89904
-7.75581
-7.61249
-7.46886
-7.32522
-7.18171
-7.03888
-6.89627
-6.7538
-6.61056
-6.46649
-6.32061
-6.1731
-6.02328
-5.87177
-5.71814
-5.56362
-5.40831
-5.25391
-5.10096
-4.95165
-4.80649
-4.66629
-4.53032
-4.39816
-4.26875
-4.1404
-4.01065
-3.87681
-3.73682
-3.58902
-3.43369
-3.27267
-3.11002
-2.95137
-2.80407
-2.67497
-2.57008
-2.49164
-2.43723
-2.39706
-2.35339
-2.27891
-2.1379
-1.88813
-1.48522
-0.887927
-0.0656323
0.995797
2.2888
3.78272
5.42394
7.14259
8.86255
10.5124
12.0339
13.386
14.5484
15.518
16.3037
16.9214
17.395
17.7473
18.0412
18.2736
-8.12706
-8.12755
-8.12859
-8.12848
-8.12575
-8.12245
-8.12131
-8.12285
-8.1266
-8.13217
-8.13939
-8.14796
-8.1576
-8.16785
-8.17839
-8.1889
-8.19919
-8.20896
-8.21816
-8.22662
-8.23434
-8.24117
-8.24717
-8.25235
-8.25675
-8.26024
-8.26293
-8.26488
-8.26628
-8.26721
-8.26785
-8.26823
-8.26855
-8.26893
-8.26958
-8.27059
-8.2721
-8.27414
-8.27681
-8.2801
-8.28413
-8.28874
-8.29394
-8.29962
-8.30571
-8.31199
-8.31837
-8.32468
-8.33086
-8.33675
-8.34229
-8.34735
-8.35191
-8.35586
-8.35927
-8.36215
-8.36467
-8.36689
-8.36911
-8.37158
-8.37458
-8.37825
-8.38291
-8.38854
-8.3949
-8.40146
-8.40764
-8.41303
-8.41655
-8.41778
-8.4231
-8.43916
-8.46444
-8.4893
-8.51893
-8.58028
-8.69221
-8.85216
-9.04873
-9.26436
-9.48026
-9.68176
-9.85986
-10.0101
-10.1317
-10.2258
-10.2948
-10.3418
-10.3697
-10.3806
-10.3764
-10.3587
-10.329
-10.2887
-10.2386
-10.1797
-10.1125
-10.0381
-9.95703
-9.86959
-9.77633
-9.67763
-9.57369
-9.46487
-9.35168
-9.23438
-9.11328
-8.98866
-8.86084
-8.73015
-8.59693
-8.4612
-8.32325
-8.18328
-8.04159
-7.89875
-7.75535
-7.61164
-7.46774
-7.32363
-7.17985
-7.03681
-6.89436
-6.75205
-6.60946
-6.46612
-6.32141
-6.17489
-6.02635
-5.87573
-5.72287
-5.56829
-5.4126
-5.25682
-5.10194
-4.94977
-4.80151
-4.65767
-4.51803
-4.38238
-4.25017
-4.11987
-3.98919
-3.85526
-3.71576
-3.56883
-3.41423
-3.25331
-3.08964
-2.9286
-2.77737
-2.64342
-2.53331
-2.45053
-2.39412
-2.35569
-2.31873
-2.25712
-2.13601
-1.91332
-1.54377
-0.984322
-0.20171
0.821146
2.07946
3.54445
5.16357
6.86676
8.57668
10.221
11.7416
13.0981
14.2698
15.2531
16.0538
16.6849
17.1711
17.5348
17.832
18.0402
-8.12928
-8.1287
-8.12818
-8.12782
-8.12739
-8.12811
-8.13107
-8.13601
-8.14244
-8.15003
-8.15853
-8.16762
-8.17705
-8.18653
-8.19591
-8.20498
-8.21362
-8.22167
-8.22908
-8.23575
-8.2417
-8.24685
-8.25124
-8.25483
-8.25769
-8.25978
-8.26122
-8.26206
-8.26248
-8.26256
-8.26247
-8.26234
-8.26238
-8.2627
-8.26348
-8.26476
-8.26666
-8.26921
-8.27248
-8.27644
-8.28108
-8.2863
-8.29202
-8.2981
-8.30447
-8.31095
-8.31743
-8.32379
-8.32994
-8.33574
-8.34109
-8.34589
-8.35008
-8.3536
-8.35647
-8.35877
-8.3606
-8.36214
-8.36369
-8.36548
-8.36776
-8.37068
-8.37451
-8.37909
-8.38367
-8.3873
-8.38963
-8.39179
-8.39561
-8.40349
-8.42069
-8.4565
-8.51705
-8.59931
-8.70168
-8.82956
-8.9819
-9.15209
-9.33199
-9.51217
-9.68355
-9.83976
-9.97702
-10.0935
-10.1887
-10.2633
-10.3183
-10.3554
-10.3765
-10.383
-10.3759
-10.3566
-10.326
-10.2853
-10.2354
-10.177
-10.1106
-10.0368
-9.95615
-9.86907
-9.77613
-9.67771
-9.57408
-9.46549
-9.35238
-9.23515
-9.11419
-8.9897
-8.86211
-8.73159
-8.5985
-8.46289
-8.32516
-8.18532
-8.04378
-7.90089
-7.7573
-7.61311
-7.46857
-7.32369
-7.17918
-7.03513
-6.89185
-6.74884
-6.60602
-6.46269
-6.31868
-6.17323
-6.02634
-5.87739
-5.72657
-5.57357
-5.41918
-5.26378
-5.10864
-4.95488
-4.80408
-4.65685
-4.51352
-4.37425
-4.23896
-4.10671
-3.97544
-3.84271
-3.70589
-3.56334
-3.41408
-3.25881
-3.09998
-2.94244
-2.7924
-2.65708
-2.54296
-2.45447
-2.39188
-2.34891
-2.31107
-2.25466
-2.14675
-1.94652
-1.60834
-1.08748
-0.347086
0.634099
1.85539
3.29059
4.88798
6.5768
8.2785
9.91948
11.4407
12.8024
13.9838
14.9797
15.794
16.4392
16.9379
17.3107
17.6015
17.7647
-8.13265
-8.13147
-8.13083
-8.13252
-8.13569
-8.13999
-8.14558
-8.15228
-8.15987
-8.16807
-8.1767
-8.18551
-8.19433
-8.20296
-8.21128
-8.21912
-8.22642
-8.23305
-8.23899
-8.24416
-8.2486
-8.25227
-8.25521
-8.25741
-8.25894
-8.25982
-8.26018
-8.26007
-8.25966
-8.25907
-8.25846
-8.25795
-8.25771
-8.25782
-8.25846
-8.25967
-8.26159
-8.26424
-8.26769
-8.27189
-8.27682
-8.28237
-8.28847
-8.29494
-8.30166
-8.30846
-8.31521
-8.32172
-8.32787
-8.33352
-8.33859
-8.34299
-8.34669
-8.34968
-8.35198
-8.35362
-8.35469
-8.35529
-8.35559
-8.35579
-8.3562
-8.35702
-8.35823
-8.3591
-8.35915
-8.36003
-8.36477
-8.37536
-8.39372
-8.42585
-8.48006
-8.56107
-8.66803
-8.79489
-8.93409
-9.08073
-9.23124
-9.38324
-9.53427
-9.68069
-9.81863
-9.94472
-10.0565
-10.1523
-10.2315
-10.2939
-10.34
-10.3708
-10.3873
-10.3906
-10.3814
-10.3607
-10.3295
-10.2886
-10.2387
-10.1806
-10.1148
-10.0416
-9.96126
-9.87462
-9.78197
-9.68366
-9.58019
-9.47174
-9.35853
-9.24117
-9.12012
-8.99568
-8.86821
-8.73788
-8.60482
-8.46938
-8.33177
-8.19208
-8.05068
-7.9079
-7.76414
-7.61961
-7.4745
-7.32918
-7.18397
-7.03889
-6.89422
-6.74997
-6.60604
-6.46195
-6.31756
-6.17239
-6.0262
-5.87842
-5.72911
-5.57786
-5.42484
-5.2702
-5.11507
-4.96026
-4.80695
-4.65606
-4.50836
-4.36444
-4.22453
-4.08826
-3.95428
-3.82081
-3.68563
-3.54739
-3.40475
-3.25773
-3.1078
-2.95859
-2.81492
-2.68301
-2.56849
-2.47596
-2.40628
-2.35502
-2.30997
-2.25046
-2.14626
-1.95883
-1.643
-1.15297
-0.448387
0.49664
1.68635
3.09755
4.67894
6.35812
8.0554
9.69695
11.2233
12.5932
13.7841
14.788
15.6085
16.2582
16.758
17.1265
17.3977
17.5164
-8.13741
-8.13693
-8.13826
-8.14216
-8.14747
-8.15373
-8.16073
-8.16831
-8.17636
-8.18466
-8.19308
-8.20141
-8.20957
-8.21739
-8.22479
-8.23163
-8.23787
-8.2434
-8.24823
-8.25228
-8.25558
-8.25809
-8.2599
-8.26098
-8.26144
-8.26131
-8.26072
-8.25975
-8.25856
-8.25726
-8.25606
-8.25506
-8.25444
-8.25428
-8.25476
-8.25592
-8.25785
-8.26056
-8.26407
-8.26835
-8.27335
-8.27897
-8.28512
-8.29163
-8.29841
-8.30526
-8.31203
-8.31851
-8.32456
-8.33002
-8.33479
-8.3388
-8.34205
-8.34445
-8.34598
-8.34648
-8.34593
-8.34457
-8.34276
-8.3408
-8.33906
-8.33754
-8.33573
-8.33393
-8.33474
-8.34211
-8.36026
-8.39284
-8.44333
-8.51494
-8.60879
-8.72167
-8.84764
-8.9813
-9.1191
-9.25871
-9.39838
-9.53635
-9.67057
-9.79866
-9.9181
-10.0266
-10.1223
-10.2042
-10.2718
-10.325
-10.3639
-10.3894
-10.402
-10.4023
-10.3911
-10.3691
-10.3372
-10.296
-10.2461
-10.1879
-10.1221
-10.0489
-9.96889
-9.88259
-9.79015
-9.69199
-9.58851
-9.4801
-9.36691
-9.24946
-9.12816
-9.00358
-8.87592
-8.74551
-8.61242
-8.47712
-8.33954
-8.20008
-8.05891
-7.91646
-7.77283
-7.62842
-7.48319
-7.33776
-7.19202
-7.04637
-6.9007
-6.75556
-6.61052
-6.46576
-6.3207
-6.17555
-6.02952
-5.88267
-5.73436
-5.58476
-5.43306
-5.2798
-5.1253
-4.97052
-4.81594
-4.6627
-4.51167
-4.36375
-4.21942
-4.0785
-3.94073
-3.80501
-3.67032
-3.53524
-3.39886
-3.26067
-3.1217
-2.98385
-2.85064
-2.72637
-2.6159
-2.52278
-2.44839
-2.3891
-2.33516
-2.26856
-2.16234
-1.98049
-1.67951
-1.21279
-0.537425
0.377091
1.53978
2.93076
4.49943
6.17244
7.86896
9.51504
11.0504
12.4315
13.6325
14.6439
15.4688
16.1198
16.616
16.9736
17.2198
17.2994
-8.14082
-8.14174
-8.14622
-8.15206
-8.15854
-8.1657
-8.17338
-8.18137
-8.18956
-8.19779
-8.20596
-8.21392
-8.2216
-8.22885
-8.23563
-8.24181
-8.24735
-8.25217
-8.25628
-8.25958
-8.26212
-8.26387
-8.26489
-8.26519
-8.26487
-8.264
-8.2627
-8.26104
-8.2592
-8.25729
-8.25552
-8.25402
-8.25297
-8.25245
-8.25262
-8.25349
-8.25511
-8.25747
-8.2606
-8.26445
-8.26904
-8.27428
-8.2801
-8.28639
-8.29304
-8.29984
-8.30655
-8.31296
-8.31891
-8.32414
-8.32852
-8.33199
-8.33446
-8.33571
-8.33563
-8.33419
-8.33161
-8.32836
-8.32494
-8.32148
-8.31785
-8.31403
-8.31093
-8.31129
-8.31938
-8.34003
-8.37899
-8.44029
-8.5239
-8.62599
-8.74143
-8.86584
-8.99558
-9.12796
-9.26139
-9.39449
-9.52581
-9.65362
-9.77609
-9.89134
-9.99759
-10.0934
-10.1776
-10.2493
-10.3082
-10.3542
-10.3875
-10.4085
-10.4177
-10.4156
-10.4027
-10.3796
-10.347
-10.3053
-10.2552
-10.1969
-10.131
-10.0579
-9.97806
-9.89184
-9.7995
-9.70144
-9.59803
-9.48962
-9.37655
-9.25909
-9.13767
-9.01273
-8.88475
-8.75405
-8.62086
-8.48543
-8.34791
-8.20855
-8.06766
-7.92544
-7.78218
-7.6381
-7.49327
-7.34803
-7.20251
-7.05676
-6.91099
-6.76546
-6.62013
-6.47501
-6.32987
-6.18469
-6.03907
-5.89286
-5.74575
-5.59749
-5.44757
-5.296
-5.14313
-4.98936
-4.8352
-4.68147
-4.52909
-4.37892
-4.23149
-4.087
-3.94572
-3.80742
-3.67176
-3.53795
-3.4055
-3.27411
-3.1443
-3.01704
-2.89439
-2.77909
-2.6747
-2.58388
-2.50774
-2.44336
-2.3828
-2.31036
-2.20198
-2.02418
-1.73546
-1.28909
-0.640144
0.245891
1.38238
2.75246
4.30678
5.97255
7.66875
9.32056
10.8652
12.2566
13.467
14.4857
15.3154
15.9678
16.4604
16.8073
17.0324
17.0844
-8.14185
-8.14476
-8.15143
-8.15825
-8.16533
-8.17301
-8.1811
-8.18933
-8.19761
-8.20578
-8.2138
-8.22153
-8.22893
-8.23585
-8.24228
-8.24809
-8.25328
-8.25775
-8.2615
-8.26445
-8.26664
-8.26804
-8.2687
-8.26863
-8.26796
-8.26672
-8.26502
-8.26297
-8.26074
-8.25846
-8.25634
-8.25451
-8.25318
-8.2524
-8.25226
-8.25272
-8.2538
-8.25544
-8.2577
-8.26063
-8.2643
-8.26868
-8.27373
-8.27928
-8.28521
-8.29129
-8.29745
-8.30362
-8.30955
-8.3145
-8.31812
-8.32043
-8.32137
-8.32078
-8.31871
-8.31537
-8.31101
-8.30583
-8.30007
-8.29405
-8.28819
-8.28348
-8.28205
-8.28774
-8.3066
-8.34489
-8.40628
-8.49022
-8.59268
-8.70857
-8.83308
-8.9627
-9.09506
-9.2282
-9.36051
-9.49054
-9.61684
-9.7379
-9.85231
-9.95876
-10.056
-10.1432
-10.2195
-10.2842
-10.3371
-10.3781
-10.4073
-10.4251
-10.4319
-10.4281
-10.4139
-10.39
-10.3569
-10.315
-10.2647
-10.2065
-10.1406
-10.0676
-9.98779
-9.90156
-9.80927
-9.71121
-9.60783
-9.49942
-9.3864
-9.26891
-9.14735
-9.02209
-8.89378
-8.76273
-8.62937
-8.49376
-8.35631
-8.2171
-8.07653
-7.93464
-7.7919
-7.64831
-7.50416
-7.3595
-7.21471
-7.06952
-6.92445
-6.77931
-6.63447
-6.48969
-6.3452
-6.20047
-6.05575
-5.91042
-5.76471
-5.61792
-5.47003
-5.32047
-5.1697
-5.01774
-4.86505
-4.71216
-4.55981
-4.40885
-4.25969
-4.11303
-3.96917
-3.82855
-3.69103
-3.5568
-3.4257
-3.29802
-3.1739
-3.05398
-2.93927
-2.83172
-2.73339
-2.64639
-2.57106
-2.50505
-2.44136
-2.36648
-2.25839
-2.08605
-1.80941
-1.38212
-0.757832
0.100755
1.21079
2.5585
4.0962
5.75218
7.44594
9.10059
10.6508
12.0489
13.2659
14.2902
15.1236
15.7773
16.2671
16.6058
16.8156
16.8514
-8.13724
-8.14162
-8.14923
-8.15709
-8.16525
-8.17378
-8.18247
-8.19109
-8.19959
-8.20786
-8.21587
-8.22353
-8.23083
-8.23767
-8.24404
-8.24982
-8.255
-8.25947
-8.26324
-8.26623
-8.26847
-8.26992
-8.27063
-8.27062
-8.26998
-8.26872
-8.26698
-8.26484
-8.2625
-8.26007
-8.25775
-8.25568
-8.25402
-8.25282
-8.25214
-8.25191
-8.25214
-8.25284
-8.25417
-8.25624
-8.25914
-8.26281
-8.26716
-8.27198
-8.27704
-8.28217
-8.28741
-8.29264
-8.29732
-8.30067
-8.30246
-8.30268
-8.30121
-8.29807
-8.29331
-8.28688
-8.2789
-8.2696
-8.25964
-8.24986
-8.24135
-8.23633
-8.23886
-8.2543
-8.28784
-8.34279
-8.41958
-8.51599
-8.62778
-8.75039
-8.88003
-9.01379
-9.14937
-9.28468
-9.41792
-9.54743
-9.67165
-9.78925
-9.89927
-10.0009
-10.0932
-10.1754
-10.247
-10.3074
-10.3566
-10.3945
-10.4212
-10.4371
-10.4425
-10.4377
-10.4229
-10.3986
-10.3653
-10.3234
-10.2731
-10.2149
-10.1491
-10.0762
-9.99646
-9.91023
-9.81788
-9.71976
-9.61627
-9.50783
-9.3947
-9.27718
-9.15555
-9.03027
-8.90179
-8.77057
-8.63707
-8.50155
-8.3642
-8.22537
-8.08526
-7.94403
-7.80192
-7.6591
-7.5158
-7.37222
-7.22841
-7.08446
-6.94055
-6.79659
-6.65277
-6.50917
-6.36576
-6.22229
-6.07874
-5.93482
-5.79038
-5.64506
-5.49873
-5.35113
-5.20234
-5.05243
-4.90151
-4.74998
-4.59848
-4.44764
-4.298
-4.15019
-4.00475
-3.86237
-3.72334
-3.58817
-3.45721
-3.33104
-3.2099
-3.09426
-2.98477
-2.88274
-2.78948
-2.70644
-2.6335
-2.56846
-2.50495
-2.43093
-2.32596
-2.16068
-1.89599
-1.48586
-0.883013
-0.0486214
1.03645
2.36102
3.88046
5.52428
7.21126
8.86285
10.4125
11.8115
13.0303
14.0566
14.8917
15.5457
16.0333
16.3666
16.5668
16.5949
-8.12303
-8.12789
-8.13704
-8.14724
-8.15743
-8.16743
-8.17714
-8.18646
-8.1954
-8.20393
-8.21211
-8.2199
-8.22733
-8.23434
-8.2409
-8.24691
-8.25236
-8.25713
-8.26124
-8.26461
-8.26726
-8.26914
-8.27031
-8.27073
-8.27049
-8.26961
-8.26823
-8.26637
-8.26419
-8.26176
-8.25926
-8.25677
-8.25443
-8.25233
-8.2506
-8.24928
-8.24857
-8.24857
-8.24943
-8.25113
-8.25367
-8.25696
-8.26094
-8.26537
-8.27006
-8.27474
-8.279
-8.28189
-8.28288
-8.28233
-8.28047
-8.27686
-8.27123
-8.2634
-8.25319
-8.24051
-8.22564
-8.20917
-8.19234
-8.17694
-8.16575
-8.16258
-8.17199
-8.19835
-8.24493
-8.31304
-8.4015
-8.50715
-8.62601
-8.75427
-8.8888
-9.02691
-9.16621
-9.30451
-9.43975
-9.57006
-9.69405
-9.8108
-9.91953
-10.0194
-10.1096
-10.1896
-10.259
-10.3174
-10.3649
-10.4014
-10.4272
-10.4425
-10.4475
-10.4425
-10.4278
-10.4037
-10.3705
-10.3288
-10.2787
-10.2208
-10.1552
-10.0824
-10.0027
-9.91651
-9.82419
-9.72616
-9.62269
-9.51418
-9.40091
-9.28338
-9.1618
-9.03667
-8.90835
-8.77733
-8.64397
-8.50879
-8.37179
-8.23347
-8.09399
-7.95361
-7.81235
-7.67055
-7.52833
-7.38605
-7.2435
-7.1011
-6.95857
-6.81622
-6.67384
-6.53172
-6.38952
-6.24747
-6.10507
-5.96253
-5.81922
-5.67524
-5.53017
-5.38418
-5.23707
-5.08898
-4.93991
-4.7901
-4.64009
-4.49027
-4.34125
-4.19334
-4.04728
-3.90381
-3.76375
-3.62753
-3.49596
-3.36968
-3.24938
-3.13538
-3.02855
-2.92966
-2.83985
-2.75992
-2.68979
-2.62695
-2.56578
-2.49479
-2.3949
-2.23761
-1.98466
-1.58996
-1.00571
-0.191587
0.872393
2.17612
3.67636
5.3041
6.9781
8.61929
10.1607
11.5534
12.7679
13.7918
14.6255
15.2783
15.764
16.0942
16.2891
16.3158
-8.09816
-8.10359
-8.11579
-8.12964
-8.14274
-8.15477
-8.16588
-8.17614
-8.18571
-8.19466
-8.20315
-8.2112
-8.21891
-8.22624
-8.23316
-8.23958
-8.24549
-8.2508
-8.25552
-8.25956
-8.26294
-8.2656
-8.26758
-8.26885
-8.26946
-8.26941
-8.26882
-8.26774
-8.26625
-8.26439
-8.26224
-8.25982
-8.25724
-8.25459
-8.25209
-8.24996
-8.24856
-8.24807
-8.24858
-8.24999
-8.25222
-8.25506
-8.2583
-8.26157
-8.26451
-8.26669
-8.26753
-8.26625
-8.26265
-8.25709
-8.24952
-8.23938
-8.22638
-8.21026
-8.19086
-8.16831
-8.1432
-8.11682
-8.09144
-8.07023
-8.05709
-8.05657
-8.07327
-8.11051
-8.16978
-8.2504
-8.34987
-8.46449
-8.59061
-8.72506
-8.86501
-9.00787
-9.15127
-9.29289
-9.43059
-9.56268
-9.68812
-9.80605
-9.91554
-10.0158
-10.106
-10.1859
-10.2552
-10.3136
-10.3611
-10.3979
-10.4241
-10.4398
-10.4454
-10.4412
-10.4271
-10.4035
-10.3709
-10.3297
-10.2801
-10.2226
-10.1574
-10.085
-10.0056
-9.91964
-9.8276
-9.72984
-9.62667
-9.5184
-9.40533
-9.2879
-9.1665
-9.04156
-8.91367
-8.78312
-8.65031
-8.51564
-8.37936
-8.24171
-8.10302
-7.96349
-7.82324
-7.68252
-7.54156
-7.40043
-7.2592
-7.11805
-6.97694
-6.83599
-6.69511
-6.55424
-6.41332
-6.27238
-6.13117
-5.98961
-5.84743
-5.70455
-5.56075
-5.41604
-5.27036
-5.12375
-4.97627
-4.82811
-4.6796
-4.53106
-4.38297
-4.23576
-4.09003
-3.94646
-3.80581
-3.6688
-3.53635
-3.40939
-3.28881
-3.17514
-3.06939
-2.97229
-2.88479
-2.80747
-2.74014
-2.68007
-2.62196
-2.55452
-2.45943
-2.30874
-2.06471
-1.68138
-1.11096
-0.312919
0.732639
2.01612
3.49546
5.10282
6.75732
8.38023
9.90515
11.2841
12.4878
13.504
14.3328
14.9827
15.4663
15.7948
15.9877
16.0172
-8.06532
-8.07219
-8.08867
-8.10691
-8.12327
-8.13755
-8.15021
-8.16152
-8.17176
-8.18117
-8.19
-8.19838
-8.20644
-8.21416
-8.22152
-8.22845
-8.23496
-8.24098
-8.24652
-8.25149
-8.25588
-8.25964
-8.2628
-8.26531
-8.26725
-8.26858
-8.2694
-8.26976
-8.26976
-8.2694
-8.26874
-8.26773
-8.26642
-8.26481
-8.26306
-8.26138
-8.26011
-8.25945
-8.25953
-8.26022
-8.26131
-8.26246
-8.26335
-8.26356
-8.26266
-8.26009
-8.25542
-8.24837
-8.23868
-8.22586
-8.20956
-8.18946
-8.16548
-8.13751
-8.10565
-8.07042
-8.03305
-7.9956
-7.96144
-7.93502
-7.92144
-7.92543
-7.95092
-7.99982
-8.07166
-8.16398
-8.27328
-8.39579
-8.52839
-8.66855
-8.81361
-8.96099
-9.10837
-9.25346
-9.3942
-9.52921
-9.65748
-9.77794
-9.88963
-9.99176
-10.0838
-10.1653
-10.2361
-10.296
-10.345
-10.3832
-10.4109
-10.4281
-10.4352
-10.4321
-10.4192
-10.3968
-10.3652
-10.3249
-10.2763
-10.2196
-10.1553
-10.0837
-10.0051
-9.91981
-9.82835
-9.73108
-9.62845
-9.52072
-9.40823
-9.29124
-9.17029
-9.04578
-8.91836
-8.78837
-8.65628
-8.52225
-8.38678
-8.24987
-8.11188
-7.97301
-7.83357
-7.69365
-7.55368
-7.41341
-7.27321
-7.13298
-6.99303
-6.85313
-6.71352
-6.57378
-6.43419
-6.29438
-6.15454
-6.01417
-5.87336
-5.73165
-5.58918
-5.44571
-5.3014
-5.15617
-5.01012
-4.86344
-4.7163
-4.56906
-4.42196
-4.27559
-4.13036
-3.9871
-3.84637
-3.70923
-3.57647
-3.44935
-3.32872
-3.21561
-3.11088
-3.01559
-2.93031
-2.85569
-2.79104
-2.73375
-2.67823
-2.61347
-2.52121
-2.37414
-2.13459
-1.75727
-1.19477
-0.407882
0.622687
1.88702
3.34395
4.92653
6.5551
8.15203
9.65265
11.0104
12.1972
13.2008
14.0212
14.6659
15.1468
15.4745
15.6676
15.7026
-8.02961
-8.03827
-8.05933
-8.08203
-8.10163
-8.11813
-8.13229
-8.14457
-8.15541
-8.16521
-8.17434
-8.18303
-8.19142
-8.19952
-8.20732
-8.21481
-8.222
-8.22884
-8.23534
-8.2414
-8.24705
-8.2522
-8.25688
-8.26104
-8.26475
-8.26799
-8.27085
-8.27332
-8.27552
-8.27747
-8.27925
-8.2808
-8.28212
-8.28314
-8.28392
-8.28452
-8.28505
-8.28555
-8.28602
-8.28634
-8.2863
-8.28547
-8.28345
-8.27983
-8.27421
-8.26601
-8.25468
-8.23968
-8.2206
-8.19699
-8.1686
-8.13535
-8.09743
-8.0551
-8.009
-7.96018
-7.91042
-7.8625
-7.82079
-7.79102
-7.77885
-7.78808
-7.82195
-7.88147
-7.96398
-8.06555
-8.18233
-8.31059
-8.44763
-8.59174
-8.74061
-8.89142
-9.04212
-9.1906
-9.33491
-9.47363
-9.60552
-9.72943
-9.84436
-9.94961
-10.0447
-10.1291
-10.2026
-10.265
-10.3165
-10.3571
-10.387
-10.4065
-10.4156
-10.4146
-10.4035
-10.3829
-10.3531
-10.3144
-10.2674
-10.2124
-10.1495
-10.0792
-10.0018
-9.91768
-9.8272
-9.7308
-9.62895
-9.52197
-9.41016
-9.29387
-9.17349
-9.04954
-8.92245
-8.79281
-8.66104
-8.52747
-8.39245
-8.25608
-8.11853
-7.98015
-7.84121
-7.70196
-7.56261
-7.4232
-7.28385
-7.14467
-7.00574
-6.86704
-6.72858
-6.59019
-6.45188
-6.31347
-6.17493
-6.03598
-5.89653
-5.75628
-5.61521
-5.4732
-5.3303
-5.18649
-5.0419
-4.8966
-4.75083
-4.60485
-4.45891
-4.31345
-4.16896
-4.02621
-3.88594
-3.74915
-3.6168
-3.49018
-3.37025
-3.25825
-3.15501
-3.06157
-2.97843
-2.90598
-2.84323
-2.78755
-2.73306
-2.6689
-2.57674
-2.42955
-2.18979
-1.81282
-1.25242
-0.471668
0.547207
1.79352
3.22643
4.77984
6.37604
7.93966
9.40862
10.7384
11.9025
12.889
13.6976
14.3351
14.8124
15.1394
15.3339
15.3761
-7.99619
-8.00642
-8.03174
-8.05852
-8.08097
-8.09935
-8.11471
-8.1277
-8.13893
-8.14896
-8.15828
-8.16717
-8.1758
-8.18418
-8.19238
-8.2004
-8.20829
-8.21598
-8.2235
-8.23078
-8.23783
-8.2446
-8.25112
-8.25735
-8.26334
-8.26904
-8.27454
-8.27983
-8.285
-8.29006
-8.29508
-8.30001
-8.30487
-8.30954
-8.31399
-8.31811
-8.32182
-8.32496
-8.32737
-8.32881
-8.32894
-8.32721
-8.32309
-8.316
-8.3054
-8.29068
-8.27128
-8.24666
-8.21644
-8.18033
-8.13833
-8.09069
-8.03804
-7.98124
-7.92152
-7.86032
-7.79954
-7.74193
-7.69225
-7.65787
-7.64639
-7.66097
-7.70128
-7.76568
-7.85132
-7.95539
-8.07504
-8.20732
-8.3496
-8.49897
-8.65193
-8.8055
-8.95867
-9.11018
-9.25795
-9.40039
-9.53609
-9.66381
-9.78256
-9.8916
-9.99035
-10.0784
-10.1553
-10.2209
-10.2756
-10.3193
-10.3524
-10.3749
-10.3871
-10.3891
-10.381
-10.3632
-10.3361
-10.3
-10.2552
-10.2023
-10.1414
-10.0728
-9.99688
-9.91412
-9.82482
-9.72942
-9.62829
-9.52184
-9.41043
-9.29452
-9.17443
-9.05072
-8.92367
-8.79404
-8.66225
-8.52884
-8.394
-8.258
-8.12085
-7.98302
-7.84461
-7.70609
-7.56744
-7.429
-7.29061
-7.15263
-7.01484
-6.87751
-6.74031
-6.60347
-6.46655
-6.32977
-6.19264
-6.05529
-5.91725
-5.7786
-5.63898
-5.49849
-5.35699
-5.21457
-5.07131
-4.92727
-4.78274
-4.63786
-4.49303
-4.34852
-4.20503
-4.06313
-3.92385
-3.78805
-3.65691
-3.53159
-3.4133
-3.30306
-3.20184
-3.11019
-3.02876
-2.95741
-2.89514
-2.83909
-2.78338
-2.71699
-2.62185
-2.47038
-2.22551
-1.84324
-1.27978
-0.500862
0.508895
1.73791
3.14476
4.66464
6.22219
7.74567
9.17623
10.4721
11.6083
12.5737
13.3674
13.9957
14.4683
14.7944
14.9908
15.041
-7.96984
-7.98106
-8.00975
-8.03981
-8.06441
-8.08406
-8.10011
-8.1134
-8.12472
-8.13474
-8.14406
-8.15298
-8.16168
-8.17022
-8.17872
-8.18721
-8.19573
-8.20425
-8.2128
-8.22133
-8.22989
-8.23844
-8.24704
-8.25566
-8.26432
-8.27301
-8.28176
-8.29057
-8.29947
-8.30847
-8.31759
-8.32677
-8.33599
-8.3451
-8.35398
-8.36239
-8.3701
-8.37675
-8.38198
-8.38531
-8.38621
-8.38401
-8.37808
-8.36769
-8.35223
-8.33101
-8.30351
-8.26925
-8.22798
-8.17963
-8.12455
-8.06343
-7.99742
-7.92798
-7.85671
-7.7851
-7.71474
-7.64844
-7.59248
-7.55557
-7.54356
-7.55723
-7.5946
-7.65385
-7.7341
-7.83413
-7.95197
-8.08521
-8.23072
-8.38418
-8.54175
-8.70112
-8.86004
-9.01604
-9.16732
-9.313
-9.45209
-9.58339
-9.70592
-9.81887
-9.92164
-10.0137
-10.0947
-10.1643
-10.223
-10.271
-10.3085
-10.3354
-10.3519
-10.3581
-10.354
-10.34
-10.3163
-10.2832
-10.2411
-10.1903
-10.1311
-10.064
-9.98939
-9.90762
-9.81914
-9.72431
-9.62351
-9.51717
-9.40582
-9.28985
-9.16975
-9.04595
-8.91893
-8.78929
-8.65764
-8.52442
-8.38996
-8.2544
-8.11788
-7.98072
-7.84317
-7.7055
-7.56789
-7.4305
-7.29338
-7.15665
-7.02028
-6.88434
-6.74869
-6.61334
-6.47807
-6.34285
-6.20739
-6.07163
-5.93523
-5.79812
-5.66008
-5.52106
-5.38099
-5.23994
-5.09793
-4.95511
-4.81168
-4.66791
-4.52414
-4.38078
-4.2385
-4.09797
-3.96021
-3.82617
-3.69701
-3.57386
-3.45784
-3.34976
-3.25044
-3.16009
-3.0791
-3.00717
-2.94318
-2.88431
-2.82464
-2.75297
-2.65119
-2.49114
-2.23606
-1.8434
-1.27244
-0.49198
0.510694
1.72235
3.10069
4.58243
6.09542
7.57242
8.95857
10.2152
11.319
12.2597
13.0358
13.6529
14.1195
14.4441
14.6423
14.7004
-7.95408
-7.96586
-7.99663
-8.02877
-8.05461
-8.07478
-8.09091
-8.10404
-8.11507
-8.12481
-8.13387
-8.14258
-8.15115
-8.1597
-8.16838
-8.17722
-8.18629
-8.19558
-8.20513
-8.21494
-8.22505
-8.23547
-8.24624
-8.25737
-8.26887
-8.28074
-8.29301
-8.30566
-8.3187
-8.33209
-8.3458
-8.35972
-8.37378
-8.38773
-8.40136
-8.41431
-8.4262
-8.43651
-8.44468
-8.45004
-8.4519
-8.44944
-8.44192
-8.42852
-8.40853
-8.38128
-8.34628
-8.30316
-8.25182
-8.19244
-8.12568
-8.05261
-7.97482
-7.89426
-7.81304
-7.73316
-7.65693
-7.58817
-7.53272
-7.49548
-7.47784
-7.48136
-7.50797
-7.55766
-7.62962
-7.72253
-7.83446
-7.96291
-8.10475
-8.25658
-8.41551
-8.57902
-8.74309
-8.90399
-9.05987
-9.20969
-9.35248
-9.48749
-9.61399
-9.73129
-9.83883
-9.93611
-10.0228
-10.0985
-10.1632
-10.217
-10.2598
-10.2918
-10.313
-10.3234
-10.3232
-10.3127
-10.2922
-10.2619
-10.222
-10.1729
-10.1151
-10.049
-9.9751
-9.89383
-9.8057
-9.71107
-9.61045
-9.50423
-9.39299
-9.2771
-9.15714
-9.03347
-8.90673
-8.77739
-8.64619
-8.51347
-8.37967
-8.24479
-8.10919
-7.97295
-7.83655
-7.69998
-7.5637
-7.42757
-7.29196
-7.15663
-7.02191
-6.88746
-6.75355
-6.61975
-6.48627
-6.35263
-6.21896
-6.08476
-5.9501
-5.81454
-5.67813
-5.54062
-5.40205
-5.26243
-5.12178
-4.9803
-4.83818
-4.69578
-4.55341
-4.41167
-4.27113
-4.13268
-3.99716
-3.86568
-3.73918
-3.61872
-3.50507
-3.39889
-3.30049
-3.21013
-3.1277
-3.05308
-2.98503
-2.92092
-2.85458
-2.77467
-2.66234
-2.48926
-2.21899
-1.8116
-1.22934
-0.44464
0.552392
1.7457
3.09252
4.53129
5.99437
7.41934
8.75611
9.96915
11.037
11.9498
12.706
13.3099
13.7691
14.0913
14.2909
14.3561
-7.95055
-7.96322
-7.99454
-8.02714
-8.05308
-8.07289
-8.08836
-8.1007
-8.11097
-8.12006
-8.12857
-8.13683
-8.1451
-8.15354
-8.1623
-8.17143
-8.18099
-8.19102
-8.20157
-8.21265
-8.22436
-8.23667
-8.24963
-8.26325
-8.27755
-8.29252
-8.3082
-8.32455
-8.3416
-8.35925
-8.37747
-8.39605
-8.41484
-8.43351
-8.45175
-8.46906
-8.48493
-8.49868
-8.50963
-8.51692
-8.51973
-8.5171
-8.5082
-8.49211
-8.46811
-8.43551
-8.39389
-8.34297
-8.28286
-8.21395
-8.13714
-8.05378
-7.96583
-7.87559
-7.78588
-7.69973
-7.6207
-7.55259
-7.4985
-7.45975
-7.4374
-7.43352
-7.45088
-7.49068
-7.55267
-7.63549
-7.73763
-7.85696
-7.99104
-8.13697
-8.29197
-8.45307
-8.61686
-8.77966
-8.93882
-9.09213
-9.23855
-9.37783
-9.50898
-9.63162
-9.74486
-9.84846
-9.94168