/*--------------------------------*- C++ -*----------------------------------*\
  =========                 |
  \\      /  F ield         | OpenFOAM: The Open Source CFD Toolbox
   \\    /   O peration     | Website:  https://openfoam.org
    \\  /    A nd           | Version:  13
     \\/     M anipulation  |
\*---------------------------------------------------------------------------*/
FoamFile
{
    format      ascii;
    class       surfaceScalarField;
    location    "200";
    object      phi;
}
// * * * * * * * * * * * * * * * * * * * * * * * * * * * * * * * * * * * * * //

dimensions      [0 3 -1 0 0 0 0];

internalField   nonuniform List<scalar> 
24170
(
3.04452e-06
1.43883e-07
2.88199e-06
1.62528e-07
2.73318e-06
1.48813e-07
2.6014e-06
1.31778e-07
2.4864e-06
1.15e-07
2.3877e-06
9.87022e-08
2.30463e-06
8.30732e-08
2.23674e-06
6.78858e-08
2.17782e-06
5.89283e-08
2.12584e-06
5.19809e-08
2.08521e-06
4.0629e-08
2.05397e-06
3.12344e-08
2.02882e-06
2.51533e-08
2.00847e-06
2.03526e-08
1.99337e-06
1.50913e-08
1.98341e-06
9.96845e-09
1.98039e-06
3.01759e-09
-4.90328e-09
1.98529e-06
3.48292e-06
7.8211e-08
3.52378e-06
1.2166e-07
3.55056e-06
1.22031e-07
3.55973e-06
1.22605e-07
3.55543e-06
1.19297e-07
3.53996e-06
1.14177e-07
3.51711e-06
1.05921e-07
3.48859e-06
9.64055e-08
3.45847e-06
8.90451e-08
3.43052e-06
7.99303e-08
3.39979e-06
7.13659e-08
3.36724e-06
6.37763e-08
3.33739e-06
5.50024e-08
3.30967e-06
4.80816e-08
3.28222e-06
4.25316e-08
3.25548e-06
3.671e-08
3.23014e-06
2.83639e-08
2.01587e-08
3.20507e-06
3.68434e-06
5.63867e-08
3.70348e-06
1.02525e-07
3.71673e-06
1.08777e-07
3.73294e-06
1.06395e-07
3.74891e-06
1.03333e-07
3.76346e-06
9.96238e-08
3.77609e-06
9.32926e-08
3.78714e-06
8.53643e-08
3.79747e-06
7.87091e-08
3.80287e-06
7.45344e-08
3.80321e-06
7.10248e-08
3.80278e-06
6.42082e-08
3.80165e-06
5.61313e-08
3.79958e-06
5.01533e-08
3.79714e-06
4.4968e-08
3.79435e-06
3.95006e-08
3.78983e-06
3.28858e-08
2.59448e-08
3.78404e-06
3.93891e-06
4.28628e-08
3.95252e-06
8.89161e-08
3.96079e-06
1.00503e-07
3.96707e-06
1.00116e-07
3.97296e-06
9.74394e-08
3.97886e-06
9.37269e-08
3.9851e-06
8.70529e-08
3.98996e-06
8.05004e-08
3.99329e-06
7.53827e-08
3.99896e-06
6.88643e-08
4.00699e-06
6.2997e-08
4.01373e-06
5.74667e-08
4.01861e-06
5.12527e-08
4.02299e-06
4.57704e-08
4.02717e-06
4.07928e-08
4.03101e-06
3.56576e-08
4.0339e-06
2.99917e-08
2.4321e-08
4.03553e-06
4.21545e-06
3.45413e-08
4.22706e-06
7.73046e-08
4.23543e-06
9.21415e-08
4.2416e-06
9.39457e-08
4.24699e-06
9.20528e-08
4.25204e-06
8.86758e-08
4.25623e-06
8.28638e-08
4.25988e-06
7.68445e-08
4.26351e-06
7.17544e-08
4.26685e-06
6.5525e-08
4.27028e-06
5.95711e-08
4.27383e-06
5.39203e-08
4.27691e-06
4.81697e-08
4.27973e-06
4.29507e-08
4.2825e-06
3.80261e-08
4.28508e-06
3.30714e-08
4.2871e-06
2.7972e-08
2.30165e-08
4.28841e-06
4.51444e-06
2.91916e-08
4.52462e-06
6.71268e-08
4.53321e-06
8.355e-08
4.53992e-06
8.72379e-08
4.54566e-06
8.63085e-08
4.55105e-06
8.32834e-08
4.55557e-06
7.83507e-08
4.55948e-06
7.29333e-08
4.56335e-06
6.78895e-08
4.56684e-06
6.20322e-08
4.57001e-06
5.64015e-08
4.573e-06
5.09261e-08
4.57567e-06
4.55034e-08
4.57813e-06
4.04886e-08
4.58046e-06
3.56931e-08
4.58257e-06
3.09674e-08
4.58422e-06
2.63158e-08
2.18566e-08
4.58538e-06
4.83728e-06
2.46378e-08
4.84597e-06
5.84381e-08
4.85446e-06
7.50534e-08
4.86155e-06
8.01551e-08
4.86759e-06
8.02655e-08
4.8731e-06
7.77757e-08
4.87788e-06
7.35765e-08
4.8821e-06
6.87099e-08
4.88613e-06
6.38616e-08
4.88973e-06
5.84318e-08
4.89303e-06
5.31034e-08
4.89607e-06
4.78901e-08
4.89878e-06
4.27857e-08
4.90128e-06
3.79931e-08
4.90357e-06
3.34006e-08
4.90559e-06
2.89502e-08
4.90722e-06
2.46853e-08
2.06615e-08
4.90841e-06
5.18363e-06
2.05856e-08
5.1914e-06
5.06755e-08
5.19943e-06
6.70286e-08
5.2066e-06
7.29804e-08
5.21292e-06
7.39523e-08
5.21856e-06
7.21368e-08
5.22353e-06
6.86032e-08
5.228e-06
6.42452e-08
5.23221e-06
5.9647e-08
5.23598e-06
5.46631e-08
5.2394e-06
4.96817e-08
5.24252e-06
4.47753e-08
5.24531e-06
3.99892e-08
5.24787e-06
3.54403e-08
5.25018e-06
3.10837e-08
5.25222e-06
2.69116e-08
5.25393e-06
2.29749e-08
1.93143e-08
5.25528e-06
5.55483e-06
1.70978e-08
5.5619e-06
4.36103e-08
5.56948e-06
5.94423e-08
5.57662e-06
6.58435e-08
5.5831e-06
6.74738e-08
5.58891e-06
6.63281e-08
5.59411e-06
6.3408e-08
5.59879e-06
5.95631e-08
5.60315e-06
5.529e-08
5.60711e-06
5.07005e-08
5.61072e-06
4.60742e-08
5.614e-06
4.14894e-08
5.61697e-06
3.70219e-08
5.61966e-06
3.27492e-08
5.62208e-06
2.86637e-08
5.62421e-06
2.47817e-08
5.62604e-06
2.11459e-08
1.77911e-08
5.62756e-06
5.95272e-06
1.41531e-08
5.95906e-06
3.72798e-08
5.96629e-06
5.22086e-08
5.97339e-06
5.87503e-08
5.98002e-06
6.08438e-08
5.98607e-06
6.02735e-08
5.99154e-06
5.79459e-08
5.99649e-06
5.46101e-08
6.00105e-06
5.07336e-08
6.00521e-06
4.65405e-08
6.00901e-06
4.22755e-08
6.01247e-06
3.80266e-08
6.01561e-06
3.38787e-08
6.01846e-06
2.99002e-08
6.02102e-06
2.61066e-08
6.02328e-06
2.25226e-08
6.02524e-06
1.91792e-08
1.61005e-08
6.02693e-06
6.37929e-06
1.16805e-08
6.38489e-06
3.16747e-08
6.39173e-06
4.53701e-08
6.3987e-06
5.17837e-08
6.4054e-06
5.41421e-08
6.41167e-06
5.40126e-08
6.41741e-06
5.22063e-08
6.42266e-06
4.93596e-08
6.42748e-06
4.59129e-08
6.43189e-06
4.2134e-08
6.43592e-06
3.82456e-08
6.43959e-06
3.43534e-08
6.44293e-06
3.05423e-08
6.44595e-06
2.68767e-08
6.44867e-06
2.33882e-08
6.45109e-06
2.01039e-08
6.45322e-06
1.7048e-08
1.42369e-08
6.45508e-06
5.74262e-06
9.89128e-09
5.74687e-06
2.74303e-08
5.75232e-06
3.99207e-08
5.75805e-06
4.60599e-08
5.76368e-06
4.85131e-08
5.76905e-06
4.86452e-08
5.77406e-06
4.71959e-08
5.77869e-06
4.47239e-08
5.78297e-06
4.16383e-08
5.78689e-06
3.82124e-08
5.79048e-06
3.46518e-08
5.79377e-06
3.10716e-08
5.79675e-06
2.7557e-08
5.79946e-06
2.41703e-08
5.8019e-06
2.09491e-08
5.80408e-06
1.79221e-08
5.80602e-06
1.51083e-08
1.25208e-08
5.80774e-06
6.99993e-06
8.1162e-09
7.00433e-06
2.30385e-08
7.01017e-06
3.40727e-08
7.0165e-06
3.97389e-08
7.02285e-06
4.21603e-08
7.02902e-06
4.24803e-08
7.03486e-06
4.13518e-08
7.04033e-06
3.92538e-08
7.04542e-06
3.65549e-08
7.05011e-06
3.35188e-08
7.05443e-06
3.03342e-08
7.05838e-06
2.71157e-08
7.06199e-06
2.39482e-08
7.06527e-06
2.08914e-08
7.06824e-06
1.79856e-08
7.0709e-06
1.52599e-08
7.07328e-06
1.27275e-08
1.03983e-08
7.0754e-06
8.53258e-06
6.38358e-09
8.53705e-06
1.85675e-08
8.54324e-06
2.78905e-08
8.55011e-06
3.28637e-08
8.55717e-06
3.51045e-08
8.56413e-06
3.55166e-08
8.57083e-06
3.46537e-08
8.57718e-06
3.29119e-08
8.58312e-06
3.06108e-08
8.58865e-06
2.799e-08
8.59376e-06
2.5219e-08
8.59847e-06
2.24074e-08
8.60279e-06
1.96341e-08
8.60672e-06
1.6956e-08
8.6103e-06
1.44123e-08
8.61353e-06
1.2031e-08
8.61643e-06
9.82081e-09
7.79e-09
8.61904e-06
1.04009e-05
4.70777e-09
1.04054e-05
1.40703e-08
1.04118e-05
2.1444e-08
1.04192e-05
2.54838e-08
1.0427e-05
2.73688e-08
1.04347e-05
2.77542e-08
1.04423e-05
2.70811e-08
1.04495e-05
2.56637e-08
1.04564e-05
2.37602e-08
1.04628e-05
2.15732e-08
1.04688e-05
1.92482e-08
1.04743e-05
1.68834e-08
1.04794e-05
1.45488e-08
1.04841e-05
1.22952e-08
1.04883e-05
1.01582e-08
1.04922e-05
8.16248e-09
1.04957e-05
6.31342e-09
4.61942e-09
1.04989e-05
1.26784e-05
3.07983e-09
1.26829e-05
9.55522e-09
1.26896e-05
1.4776e-08
1.26975e-05
1.76346e-08
1.27059e-05
1.89627e-08
1.27144e-05
1.91784e-08
1.27229e-05
1.85996e-08
1.27311e-05
1.74548e-08
1.2739e-05
1.59346e-08
1.27463e-05
1.4192e-08
1.27532e-05
1.23408e-08
1.27597e-05
1.04604e-08
1.27656e-05
8.60799e-09
1.27711e-05
6.82448e-09
1.27761e-05
5.13894e-09
1.27807e-05
3.57119e-09
1.27849e-05
2.12367e-09
8.05792e-10
1.27887e-05
1.54548e-05
1.46076e-09
1.54594e-05
4.95865e-09
1.54663e-05
7.83818e-09
1.54747e-05
9.27076e-09
1.54838e-05
9.82581e-09
1.54933e-05
9.71442e-09
1.55028e-05
9.12123e-09
1.55121e-05
8.18458e-09
1.5521e-05
7.02094e-09
1.55294e-05
5.72569e-09
1.55374e-05
4.37162e-09
1.55449e-05
3.01212e-09
1.55518e-05
1.6851e-09
1.55582e-05
4.18729e-10
1.55641e-05
-7.67905e-10
1.55695e-05
-1.8611e-09
1.55745e-05
-2.86163e-09
-3.76021e-09
1.55791e-05
1.88393e-05
-2.32507e-10
1.88442e-05
7.74828e-11
1.88517e-05
3.78351e-10
1.88608e-05
1.31998e-10
1.88709e-05
-2.9924e-10
1.88815e-05
-8.89996e-10
1.88923e-05
-1.59662e-09
1.89028e-05
-2.38003e-09
1.89131e-05
-3.20461e-09
1.89228e-05
-4.04101e-09
1.89321e-05
-4.86591e-09
1.89407e-05
-5.66022e-09
1.89488e-05
-6.40995e-09
1.89564e-05
-7.10409e-09
1.89633e-05
-7.73541e-09
1.89698e-05
-8.29842e-09
1.89757e-05
-8.79716e-09
-9.2242e-09
1.89812e-05
2.29653e-05
-2.19205e-09
2.2971e-05
-5.60333e-09
2.29797e-05
-8.29507e-09
2.29903e-05
-1.05152e-08
2.30021e-05
-1.21235e-08
2.30145e-05
-1.33042e-08
2.30271e-05
-1.41704e-08
2.30395e-05
-1.4796e-08
2.30516e-05
-1.52395e-08
2.30631e-05
-1.55522e-08
2.3074e-05
-1.57694e-08
2.30842e-05
-1.59138e-08
2.30938e-05
-1.59999e-08
2.31028e-05
-1.60373e-08
2.31111e-05
-1.60321e-08
2.31188e-05
-1.59881e-08
2.31259e-05
-1.59125e-08
-1.58013e-08
2.31324e-05
1.68124e-05
-3.84328e-09
1.6817e-05
-1.02372e-08
1.68239e-05
-1.51972e-08
1.68322e-05
-1.88115e-08
1.68413e-05
-2.11937e-08
1.68507e-05
-2.27259e-08
1.68602e-05
-2.36324e-08
1.68694e-05
-2.40667e-08
1.68783e-05
-2.41653e-08
1.68868e-05
-2.40425e-08
1.68948e-05
-2.37758e-08
1.69024e-05
-2.34169e-08
1.69094e-05
-2.2999e-08
1.69159e-05
-2.25463e-08
1.69219e-05
-2.20722e-08
1.69275e-05
-2.15861e-08
1.69327e-05
-2.1095e-08
-2.05971e-08
1.69375e-05
1.46363e-05
-5.62028e-09
1.46412e-05
-1.5078e-08
1.46481e-05
-2.21398e-08
1.46562e-05
-2.68822e-08
1.46648e-05
-2.98197e-08
1.46737e-05
-3.15511e-08
1.46824e-05
-3.2378e-08
1.46909e-05
-3.25298e-08
1.46989e-05
-3.22278e-08
1.47065e-05
-3.16458e-08
1.47137e-05
-3.08955e-08
1.47203e-05
-3.00489e-08
1.47264e-05
-2.91567e-08
1.47322e-05
-2.82516e-08
1.47374e-05
-2.73532e-08
1.47423e-05
-2.64707e-08
1.47468e-05
-2.56126e-08
-2.47757e-08
1.4751e-05
1.27422e-05
-7.67818e-09
1.27476e-05
-2.04377e-08
1.27548e-05
-2.9395e-08
1.27629e-05
-3.49436e-08
1.27713e-05
-3.82196e-08
1.27797e-05
-3.99996e-08
1.2788e-05
-4.06129e-08
1.27958e-05
-4.03756e-08
1.28032e-05
-3.96063e-08
1.28101e-05
-3.85318e-08
1.28165e-05
-3.72866e-08
1.28224e-05
-3.59582e-08
1.28278e-05
-3.461e-08
1.28329e-05
-3.32816e-08
1.28375e-05
-3.19941e-08
1.28418e-05
-3.0755e-08
1.28457e-05
-2.95697e-08
-2.84357e-08
1.28494e-05
1.10935e-05
-1.02069e-08
1.10996e-05
-2.65671e-08
1.11073e-05
-3.70712e-08
1.11154e-05
-4.30623e-08
1.11237e-05
-4.64844e-08
1.11318e-05
-4.81637e-08
1.11396e-05
-4.84222e-08
1.11469e-05
-4.76932e-08
1.11537e-05
-4.6396e-08
1.116e-05
-4.47985e-08
1.11658e-05
-4.30481e-08
1.1171e-05
-4.12417e-08
1.11759e-05
-3.94498e-08
1.11803e-05
-3.7719e-08
1.11844e-05
-3.60686e-08
1.11882e-05
-3.45035e-08
1.11916e-05
-3.30227e-08
-3.16244e-08
1.11948e-05
9.65848e-06
-1.34734e-08
9.66558e-06
-3.36647e-08
9.67365e-06
-4.51398e-08
9.68181e-06
-5.12256e-08
9.68997e-06
-5.46428e-08
9.69787e-06
-5.60561e-08
9.70526e-06
-5.58159e-08
9.71208e-06
-5.45151e-08
9.71834e-06
-5.26529e-08
9.72406e-06
-5.05172e-08
9.72927e-06
-4.82615e-08
9.73402e-06
-4.59873e-08
9.73834e-06
-4.37687e-08
9.74228e-06
-4.16555e-08
9.74587e-06
-3.9663e-08
9.74916e-06
-3.77928e-08
9.75218e-06
-3.60429e-08
-3.44111e-08
9.75497e-06
8.4097e-06
-1.78216e-08
8.41792e-06
-4.18878e-08
8.4263e-06
-5.35127e-08
8.43447e-06
-5.93927e-08
8.4425e-06
-6.26781e-08
8.45011e-06
-6.36653e-08
8.45712e-06
-6.28179e-08
8.46352e-06
-6.0919e-08
8.46937e-06
-5.85001e-08
8.47468e-06
-5.58284e-08
8.47949e-06
-5.30671e-08
8.48383e-06
-5.03299e-08
8.48776e-06
-4.76953e-08
8.49131e-06
-4.52119e-08
8.49454e-06
-4.28887e-08
8.49747e-06
-4.07261e-08
8.50015e-06
-3.87191e-08
-3.6846e-08
8.50259e-06
7.32311e-06
-2.36449e-08
7.33262e-06
-5.14002e-08
7.3414e-06
-6.2293e-08
7.34971e-06
-6.76955e-08
7.35774e-06
-7.07103e-08
7.36522e-06
-7.115e-08
7.37207e-06
-6.96626e-08
7.37834e-06
-6.7186e-08
7.38408e-06
-6.42377e-08
7.38928e-06
-6.10357e-08
7.39397e-06
-5.77478e-08
7.39815e-06
-5.45167e-08
7.40189e-06
-5.14365e-08
7.40524e-06
-4.85589e-08
7.40824e-06
-4.58887e-08
7.41095e-06
-4.34318e-08
7.41341e-06
-4.11847e-08
-3.9119e-08
7.41569e-06
6.37837e-06
-3.19526e-08
6.38953e-06
-6.25552e-08
6.3995e-06
-7.22618e-08
6.4089e-06
-7.70926e-08
6.41785e-06
-7.96618e-08
6.42609e-06
-7.93862e-08
6.43362e-06
-7.71956e-08
6.44051e-06
-7.40714e-08
6.44673e-06
-7.04617e-08
6.4523e-06
-6.66012e-08
6.4572e-06
-6.2653e-08
6.46147e-06
-5.87861e-08
6.46517e-06
-5.51312e-08
6.46837e-06
-5.17547e-08
6.47114e-06
-4.86614e-08
6.47358e-06
-4.58758e-08
6.47578e-06
-4.33815e-08
-4.11332e-08
6.47779e-06
5.56084e-06
-4.73301e-08
5.57681e-06
-7.85184e-08
5.59169e-06
-8.71455e-08
5.60602e-06
-9.14168e-08
5.61924e-06
-9.28824e-08
5.63096e-06
-9.11031e-08
5.64103e-06
-8.72654e-08
5.64939e-06
-8.24321e-08
5.65608e-06
-7.71481e-08
5.66121e-06
-7.17398e-08
5.66494e-06
-6.63821e-08
5.66746e-06
-6.12958e-08
5.66895e-06
-5.66286e-08
5.66966e-06
-5.24562e-08
5.66974e-06
-4.87476e-08
5.66938e-06
-4.55166e-08
5.66875e-06
-4.27492e-08
-4.06037e-08
5.66822e-06
4.87564e-06
-9.53595e-08
4.91397e-06
-1.16853e-07
4.94224e-06
-1.15414e-07
4.96104e-06
-1.10207e-07
4.97068e-06
-1.02521e-07
4.97258e-06
-9.30043e-08
4.96835e-06
-8.30343e-08
4.95937e-06
-7.34501e-08
4.94685e-06
-6.46273e-08
4.93175e-06
-5.66406e-08
4.91481e-06
-4.94428e-08
4.89662e-06
-4.31028e-08
4.87763e-06
-3.76412e-08
4.85821e-06
-3.30374e-08
4.83879e-06
-2.93275e-08
4.81974e-06
-2.64634e-08
4.80124e-06
-2.42483e-08
-2.29871e-08
4.78363e-06
4.10732e-06
3.99046e-06
3.87505e-06
3.76484e-06
3.66232e-06
3.56932e-06
3.48628e-06
3.41283e-06
3.34821e-06
3.29157e-06
3.24212e-06
3.19902e-06
3.16138e-06
3.12834e-06
3.09901e-06
3.07255e-06
3.0483e-06
3.02532e-06
-1.63083e-08
1.63983e-08
-3.51905e-08
1.90549e-08
-4.57381e-08
1.06923e-08
-3.59432e-08
-9.64076e-09
-5.30815e-09
-3.05157e-08
3.90149e-08
-4.41906e-08
8.97519e-08
-5.06652e-08
1.42241e-07
-5.23944e-08
1.93778e-07
-5.14897e-08
2.4291e-07
-4.90531e-08
2.88606e-07
-4.56598e-08
3.30402e-07
-4.1725e-08
3.67974e-07
-3.75434e-08
4.01343e-07
-3.33043e-08
4.3047e-07
-2.91039e-08
4.55535e-07
-2.5007e-08
4.76605e-07
-2.10526e-08
4.9393e-07
-1.72713e-08
5.07642e-07
-1.36948e-08
5.17992e-07
-1.02935e-08
5.25085e-07
-7.0745e-09
5.29177e-07
-4.02943e-09
5.30346e-07
-1.14344e-09
5.28689e-07
1.73163e-09
5.24125e-07
4.59596e-09
5.17021e-07
7.18621e-09
5.07625e-07
9.43021e-09
4.96456e-07
1.12563e-08
4.83879e-07
1.26143e-08
4.70327e-07
1.3642e-08
4.56102e-07
1.42541e-08
4.4173e-07
1.44591e-08
4.27449e-07
1.43062e-08
4.13806e-07
1.37236e-08
4.00972e-07
1.28438e-08
3.89335e-07
1.17121e-08
3.79044e-07
1.02931e-08
3.70446e-07
8.67536e-09
3.63454e-07
6.99248e-09
3.58276e-07
5.26075e-09
3.54664e-07
3.61188e-09
3.52639e-07
2.10829e-09
3.518e-07
8.32678e-10
3.52001e-07
-1.24107e-10
3.52727e-07
-7.45046e-10
3.53925e-07
-1.13219e-09
3.55161e-07
-1.26274e-09
3.56319e-07
-1.10246e-09
3.56938e-07
-6.52032e-10
3.56858e-07
1.34793e-10
3.55563e-07
1.26619e-09
3.5299e-07
2.63068e-09
3.48879e-07
4.09438e-09
3.434e-07
5.52872e-09
3.36572e-07
6.80177e-09
3.28863e-07
7.75362e-09
3.20604e-07
8.24004e-09
3.12514e-07
8.13693e-09
3.05e-07
7.49161e-09
2.98578e-07
6.47652e-09
2.9315e-07
5.42285e-09
2.88579e-07
4.62825e-09
2.84038e-07
4.53461e-09
2.78219e-07
5.86562e-09
2.69691e-07
8.532e-09
2.58486e-07
1.12466e-08
2.44824e-07
1.36377e-08
2.28926e-07
1.59699e-08
2.00306e-07
2.84844e-08
1.43048e-07
5.73825e-08
4.40612e-08
9.87652e-08
-1.0257e-07
1.4676e-07
-3.10395e-07
2.07635e-07
-5.73411e-07
2.63138e-07
-8.74699e-07
3.01185e-07
-1.19532e-06
3.20743e-07
-1.51771e-06
3.22337e-07
-1.82577e-06
3.08139e-07
-2.10878e-06
2.82939e-07
-2.35943e-06
2.50688e-07
-2.57608e-06
2.16573e-07
-2.75952e-06
1.83431e-07
-2.91297e-06
1.5335e-07
-3.04016e-06
1.27163e-07
-3.14536e-06
1.05098e-07
-3.23229e-06
8.68828e-08
-3.30446e-06
7.20496e-08
-3.3646e-06
6.00187e-08
-3.41491e-06
5.01251e-08
-3.45717e-06
4.20506e-08
-3.49311e-06
3.57538e-08
-3.52387e-06
3.06416e-08
-3.55032e-06
2.63553e-08
-3.57318e-06
2.27733e-08
-3.59291e-06
1.96519e-08
-3.61005e-06
1.70618e-08
-3.62492e-06
1.47907e-08
-3.6377e-06
1.27016e-08
-3.6486e-06
1.08258e-08
-3.65781e-06
9.13489e-09
-3.66543e-06
7.55107e-09
-3.67157e-06
6.09259e-09
-3.67641e-06
4.78828e-09
-3.67997e-06
3.54459e-09
-3.68247e-06
2.45889e-09
-3.68402e-06
1.51171e-09
-3.68467e-06
5.70197e-10
-3.68444e-06
-3.10479e-10
-3.68341e-06
-1.15571e-09
-3.68168e-06
-1.85575e-09
-3.67956e-06
-2.28862e-09
-3.67714e-06
-2.596e-09
-3.67444e-06
-2.91393e-09
-3.67144e-06
-3.22188e-09
-3.66814e-06
-3.54093e-09
-3.6647e-06
-3.70999e-09
-3.66106e-06
-3.92797e-09
-3.65724e-06
-4.11786e-09
-3.65329e-06
-4.27799e-09
-3.6492e-06
-4.42603e-09
-3.64502e-06
-4.53536e-09
-3.64071e-06
-4.69001e-09
-3.63628e-06
-4.82409e-09
-3.63182e-06
-4.88843e-09
-3.62724e-06
-5.02262e-09
-3.62272e-06
-5.00238e-09
-3.61851e-06
-4.68988e-09
-3.61462e-06
-4.39977e-09
-3.61088e-06
-4.24341e-09
-3.60739e-06
-4.03714e-09
-3.60411e-06
-3.7994e-09
-3.60116e-06
-3.51859e-09
-3.59871e-06
-2.94652e-09
-3.59675e-06
-2.51174e-09
-3.59497e-06
-2.22001e-09
-3.59336e-06
-2.05469e-09
-3.59161e-06
-2.04071e-09
-3.58978e-06
-2.04524e-09
-3.58769e-06
-2.08532e-09
-3.5856e-06
-1.98097e-09
-3.58404e-06
-1.33986e-09
-3.58401e-06
1.73329e-10
-3.58631e-06
2.51291e-09
-3.59262e-06
6.50633e-09
-3.60433e-06
1.19293e-08
-3.62177e-06
1.76752e-08
-3.64593e-06
2.44482e-08
-3.67666e-06
3.10633e-08
-3.71248e-06
3.62226e-08
-3.75212e-06
4.00973e-08
-3.79308e-06
4.15236e-08
-3.83176e-06
3.93342e-08
-3.86476e-06
3.37518e-08
-3.88833e-06
2.44556e-08
-3.89997e-06
1.26211e-08
-3.89844e-06
-3.57328e-10
-3.88253e-06
-1.4616e-08
-3.8514e-06
-2.9623e-08
-3.80533e-06
-4.44159e-08
-3.74547e-06
-5.80038e-08
-3.67414e-06
-6.93505e-08
-3.59264e-06
-7.94052e-08
-3.50206e-06
-8.84589e-08
-3.40032e-06
-9.95751e-08
-3.28306e-06
-1.15155e-07
-3.14272e-06
-1.38195e-07
-2.97099e-06
-1.69664e-07
-2.76047e-06
-2.08415e-07
-2.50654e-06
-2.51873e-07
-2.2113e-06
-2.93134e-07
-1.88238e-06
-3.26857e-07
-1.52939e-06
-3.50912e-07
-1.1609e-06
-3.66428e-07
-7.64193e-07
-3.94668e-07
-3.15163e-07
-4.47141e-07
1.6086e-07
-4.74359e-07
6.11141e-07
-4.48866e-07
1.00702e-06
-3.94585e-07
1.33608e-06
-3.27888e-07
-1.95763e-07
1.53297e-06
1.72221e-09
1.48412e-08
9.6731e-09
1.14022e-08
3.82351e-08
-1.7684e-08
8.22648e-08
-5.35586e-08
1.30311e-07
-7.85014e-08
1.7647e-07
-9.02965e-08
2.18939e-07
-9.31003e-08
2.57432e-07
-9.08493e-08
2.91967e-07
-8.59998e-08
3.22822e-07
-7.98741e-08
3.5032e-07
-7.31359e-08
3.7476e-07
-6.61342e-08
3.96307e-07
-5.90704e-08
4.15103e-07
-5.20705e-08
4.31233e-07
-4.52178e-08
4.44824e-07
-3.857e-08
4.55951e-07
-3.21646e-08
4.64732e-07
-2.60262e-08
4.71224e-07
-2.01724e-08
4.75573e-07
-1.46134e-08
4.77875e-07
-9.36161e-09
4.78314e-07
-4.43526e-09
4.77038e-07
1.5225e-10
4.74384e-07
4.4255e-09
4.70589e-07
8.41453e-09
4.65709e-07
1.21104e-08
4.59693e-07
1.54732e-08
4.52569e-07
1.84314e-08
4.44281e-07
2.09312e-08
4.3503e-07
2.29457e-08
4.24884e-07
2.44283e-08
4.14046e-07
2.53504e-08
4.02698e-07
2.56791e-08
3.91069e-07
2.54013e-08
3.79378e-07
2.45535e-08
3.67951e-07
2.31844e-08
3.56943e-07
2.13164e-08
3.46623e-07
1.90414e-08
3.37181e-07
1.64488e-08
3.28857e-07
1.36321e-08
3.2173e-07
1.0754e-08
3.15929e-07
7.95458e-09
3.11391e-07
5.38215e-09
3.08121e-07
3.18607e-09
3.05891e-07
1.48701e-09
3.04441e-07
3.49779e-10
3.03381e-07
-2.08086e-10
3.02503e-07
-1.957e-10
3.01493e-07
3.48059e-10
3.00267e-07
1.3841e-09
2.98665e-07
2.86196e-09
2.96617e-07
4.70776e-09
2.93879e-07
6.82502e-09
2.90335e-07
9.09587e-09
2.85762e-07
1.13637e-08
2.80089e-07
1.34543e-08
2.73132e-07
1.51903e-08
2.64834e-07
1.64638e-08
2.54918e-07
1.7409e-08
2.42936e-07
1.85018e-08
2.28016e-07
2.03552e-08
2.09309e-07
2.33831e-08
1.85564e-07
2.82855e-08
1.54739e-07
3.67441e-08
1.13407e-07
4.98369e-08
5.5157e-08
6.9562e-08
-3.45019e-08
1.03229e-07
-1.74682e-07
1.56168e-07
-3.72201e-07
2.25942e-07
-6.21613e-07
3.06785e-07
-9.14742e-07
3.9186e-07
-1.24104e-06
4.7306e-07
-1.57564e-06
5.42213e-07
-1.90046e-06
5.87963e-07
-2.20083e-06
6.01554e-07
-2.46362e-06
5.83556e-07
-2.68273e-06
5.41448e-07
-2.85797e-06
4.83389e-07
-2.99463e-06
4.19575e-07
-3.09966e-06
3.55716e-07
-3.17999e-06
2.96874e-07
-3.24194e-06
2.4535e-07
-3.29056e-06
2.01918e-07
-3.32961e-06
1.66179e-07
-3.36178e-06
1.37213e-07
-3.38887e-06
1.13915e-07
-3.41208e-06
9.5183e-08
-3.43221e-06
8.00516e-08
-3.44994e-06
6.77224e-08
-3.46569e-06
5.76355e-08
-3.47946e-06
4.93934e-08
-3.49143e-06
4.25214e-08
-3.5018e-06
3.66543e-08
-3.51069e-06
3.16044e-08
-3.51833e-06
2.72308e-08
-3.52474e-06
2.3405e-08
-3.52997e-06
1.99697e-08
-3.53419e-06
1.68545e-08
-3.53742e-06
1.3998e-08
-3.53964e-06
1.13023e-08
-3.54095e-06
8.81362e-09
-3.54152e-06
6.62479e-09
-3.54133e-06
4.58226e-09
-3.54042e-06
2.61125e-09
-3.53894e-06
9.60996e-10
-3.53697e-06
-4.94395e-10
-3.53456e-06
-1.89723e-09
-3.53181e-06
-3.13586e-09
-3.52881e-06
-4.24258e-09
-3.52558e-06
-5.2066e-09
-3.52203e-06
-5.96906e-09
-3.5182e-06
-6.57602e-09
-3.51417e-06
-7.10506e-09
-3.51005e-06
-7.52566e-09
-3.50594e-06
-7.86142e-09
-3.50179e-06
-8.0784e-09
-3.49765e-06
-8.30262e-09
-3.49357e-06
-8.44703e-09
-3.48955e-06
-8.56796e-09
-3.48551e-06
-8.74533e-09
-3.48155e-06
-8.7916e-09
-3.47768e-06
-8.87626e-09
-3.47382e-06
-9.01263e-09
-3.47004e-06
-9.02979e-09
-3.46644e-06
-8.99771e-09
-3.46304e-06
-8.8003e-09
-3.45972e-06
-8.42268e-09
-3.45659e-06
-7.95599e-09
-3.45384e-06
-7.42964e-09
-3.45156e-06
-6.76173e-09
-3.44978e-06
-6.0456e-09
-3.44845e-06
-5.30649e-09
-3.44747e-06
-4.38835e-09
-3.44688e-06
-3.53577e-09
-3.44663e-06
-2.88077e-09
-3.44672e-06
-2.31602e-09
-3.44734e-06
-1.70018e-09
-3.4486e-06
-9.23161e-10
-3.45069e-06
-1.67579e-12
-3.45384e-06
1.29531e-09
-3.45835e-06
3.34904e-09
-3.46436e-06
6.36143e-09
-3.47178e-06
1.00816e-08
-3.48031e-06
1.52006e-08
-3.48998e-06
2.17726e-08
-3.50095e-06
2.88488e-08
-3.5128e-06
3.653e-08
-3.52532e-06
4.38717e-08
-3.53842e-06
4.96612e-08
-3.55157e-06
5.36652e-08
-3.56458e-06
5.50055e-08
-3.57735e-06
5.26909e-08
-3.58924e-06
4.62963e-08
-3.59935e-06
3.5343e-08
-3.60567e-06
1.98223e-08
-3.60493e-06
-6.48012e-11
-3.59444e-06
-2.39598e-08
-3.57234e-06
-5.03615e-08
-3.53736e-06
-7.7917e-08
-3.48874e-06
-1.04922e-07
-3.42574e-06
-1.30574e-07
-3.34782e-06
-1.5542e-07
-3.25307e-06
-1.81308e-07
-3.13808e-06
-2.12634e-07
-2.99716e-06
-2.54218e-07
-2.82286e-06
-3.10625e-07
-2.60836e-06
-3.82363e-07
-2.34869e-06
-4.66252e-07
-2.04319e-06
-5.55602e-07
-1.69392e-06
-6.40579e-07
-1.30555e-06
-7.13475e-07
-8.78723e-07
-7.76008e-07
-4.07386e-07
-8.36274e-07
8.42437e-08
-8.85007e-07
5.43416e-07
-9.05266e-07
9.56899e-07
-8.86858e-07
1.33764e-06
-8.28733e-07
1.68392e-06
-7.40005e-07
1.98311e-06
-6.26286e-07
-4.47486e-07
2.23565e-06
6.33466e-09
8.63423e-09
4.07496e-08
-2.28219e-08
9.59161e-08
-7.27588e-08
1.50644e-07
-1.08228e-07
1.95202e-07
-1.23025e-07
2.29869e-07
-1.24932e-07
2.575e-07
-1.2071e-07
2.80502e-07
-1.13828e-07
3.00308e-07
-1.0579e-07
3.17698e-07
-9.7244e-08
3.33067e-07
-8.84908e-08
3.4664e-07
-7.96886e-08
3.58515e-07
-7.09331e-08
3.68751e-07
-6.22892e-08
3.77351e-07
-5.38068e-08
3.84325e-07
-4.55281e-08
3.89657e-07
-3.74873e-08
3.93362e-07
-2.97161e-08
3.95438e-07
-2.22394e-08
3.95923e-07
-1.50821e-08
3.94845e-07
-8.27482e-09
3.92276e-07
-1.84834e-09
3.88268e-07
4.17138e-09
3.82946e-07
9.76811e-09
3.76442e-07
1.49319e-08
3.68924e-07
1.96521e-08
3.6051e-07
2.39021e-08
3.51335e-07
2.76332e-08
3.41495e-07
3.07885e-08
3.31158e-07
3.33117e-08
3.20452e-07
3.51527e-08
3.09562e-07
3.62689e-08
2.98633e-07
3.66258e-08
2.87851e-07
3.62114e-08
2.77379e-07
3.50404e-08
2.67441e-07
3.31489e-08
2.58189e-07
3.05836e-08
2.49812e-07
2.74442e-08
2.42421e-07
2.38543e-08
2.36109e-07
1.99707e-08
2.3086e-07
1.60183e-08
2.26632e-07
1.22072e-08
2.23278e-07
8.74817e-09
2.20651e-07
5.83543e-09
2.18523e-07
3.62208e-09
2.16682e-07
2.20744e-09
2.14843e-07
1.63389e-09
2.12764e-07
1.89526e-09
2.10169e-07
2.94318e-09
2.06854e-07
4.70899e-09
2.02598e-07
7.11541e-09
1.9724e-07
1.0076e-08
1.90565e-07
1.34986e-08
1.82385e-07
1.72829e-08
1.7244e-07
2.13068e-08
1.60449e-07
2.54537e-08
1.45986e-07
2.96567e-08
1.28497e-07
3.39677e-08
1.07083e-07
3.88318e-08
8.02141e-08
4.53967e-08
4.54028e-08
5.51784e-08
-7.66964e-10
6.9584e-08
-6.31499e-08
9.06761e-08
-1.48832e-07
1.22443e-07
-2.68184e-07
1.6919e-07
-4.32014e-07
2.33393e-07
-6.44348e-07
3.15556e-07
-9.00327e-07
4.12138e-07
-1.18888e-06
5.14476e-07
-1.49445e-06
6.12351e-07
-1.79834e-06
6.95732e-07
-2.07995e-06
7.54666e-07
-2.31956e-06
7.81814e-07
-2.50703e-06
7.75424e-07
-2.64489e-06
7.39418e-07
-2.74264e-06
6.81303e-07
-2.81157e-06
6.10383e-07
-2.86265e-06
5.34464e-07
-2.90334e-06
4.60252e-07
-2.93913e-06
3.91486e-07
-2.97265e-06
3.30372e-07
-3.00494e-06
2.77614e-07
-3.03608e-06
2.33021e-07
-3.06576e-06
1.95826e-07
-3.09363e-06
1.65047e-07
-3.11942e-06
1.39663e-07
-3.14299e-06
1.18695e-07
-3.1643e-06
1.013e-07
-3.18347e-06
8.67808e-08
-3.20054e-06
7.45913e-08
-3.21552e-06
6.42878e-08
-3.22855e-06
5.5481e-08
-3.23976e-06
4.78146e-08
-3.24929e-06
4.10842e-08
-3.25726e-06
3.51589e-08
-3.26376e-06
2.98648e-08
-3.26891e-06
2.5075e-08
-3.27285e-06
2.0753e-08
-3.27568e-06
1.67854e-08
-3.27746e-06
1.30408e-08
-3.27827e-06
9.59894e-09
-3.27823e-06
6.56162e-09
-3.27738e-06
3.72272e-09
-3.27578e-06
9.99462e-10
-3.2735e-06
-1.33178e-09
-3.27059e-06
-3.43103e-09
-3.26711e-06
-5.41497e-09
-3.26314e-06
-7.16203e-09
-3.25874e-06
-8.71127e-09
-3.25396e-06
-1.00828e-08
-3.24883e-06
-1.11997e-08
-3.24342e-06
-1.21036e-08
-3.23779e-06
-1.28684e-08
-3.23198e-06
-1.3487e-08
-3.22604e-06
-1.3952e-08
-3.22004e-06
-1.42531e-08
-3.21405e-06
-1.44795e-08
-3.20811e-06
-1.45917e-08
-3.20223e-06
-1.46636e-08
-3.19642e-06
-1.47712e-08
-3.19081e-06
-1.46442e-08
-3.18542e-06
-1.4506e-08
-3.18027e-06
-1.44378e-08
-3.17532e-06
-1.42587e-08
-3.17064e-06
-1.39889e-08
-3.16619e-06
-1.3562e-08
-3.16196e-06
-1.29838e-08
-3.15797e-06
-1.22855e-08
-3.1543e-06
-1.14606e-08
-3.15092e-06
-1.05052e-08
-3.14783e-06
-9.51818e-09
-3.14501e-06
-8.49367e-09
-3.14251e-06
-7.26774e-09
-3.14032e-06
-6.07064e-09
-3.13846e-06
-5.08125e-09
-3.13696e-06
-4.09214e-09
-3.13587e-06
-2.98884e-09
-3.1352e-06
-1.68071e-09
-3.13505e-06
-1.26922e-10
-3.13537e-06
1.73184e-09
-3.13608e-06
4.21529e-09
-3.13728e-06
7.6799e-09
-3.13876e-06
1.16804e-08
-3.14048e-06
1.70183e-08
-3.14273e-06
2.4135e-08
-3.14576e-06
3.19905e-08
-3.14968e-06
4.06052e-08
-3.1549e-06
4.92728e-08
-3.16181e-06
5.6801e-08
-3.17038e-06
6.25039e-08
-3.18062e-06
6.55913e-08
-3.1926e-06
6.50548e-08
-3.20564e-06
5.98049e-08
-3.21873e-06
4.89577e-08
-3.23029e-06
3.1995e-08
-3.23827e-06
8.5825e-09
-3.24033e-06
-2.11264e-08
-3.23371e-06
-5.61394e-08
-3.21543e-06
-9.52493e-08
-3.18243e-06
-1.36914e-07
-3.13155e-06
-1.80351e-07
-3.05982e-06
-2.26046e-07
-2.9635e-06
-2.76476e-07
-2.83827e-06
-3.36734e-07
-2.67846e-06
-4.12897e-07
-2.47757e-06
-5.1039e-07
-2.23004e-06
-6.28768e-07
-1.93398e-06
-7.6118e-07
-1.59073e-06
-8.97715e-07
-1.20371e-06
-1.02643e-06
-7.75186e-07
-1.14085e-06
-3.10466e-07
-1.23968e-06
1.64781e-07
-1.31063e-06
6.21452e-07
-1.3409e-06
1.04605e-06
-1.32918e-06
1.43673e-06
-1.27691e-06
1.79492e-06
-1.18634e-06
2.11844e-06
-1.06297e-06
2.40233e-06
-9.09676e-07
-7.03659e-07
2.65901e-06
1.69606e-08
-8.24484e-09
7.52288e-08
-8.09836e-08
1.33827e-07
-1.31306e-07
1.75189e-07
-1.49552e-07
2.0247e-07
-1.50285e-07
2.21865e-07
-1.44305e-07
2.37117e-07
-1.35948e-07
2.49989e-07
-1.26682e-07
2.61229e-07
-1.17018e-07
2.7117e-07
-1.0717e-07
2.79941e-07
-9.72511e-08
2.87598e-07
-8.73315e-08
2.94135e-07
-7.74608e-08
2.99537e-07
-6.76786e-08
3.03761e-07
-5.80222e-08
3.06774e-07
-4.85292e-08
3.08532e-07
-3.92386e-08
3.09019e-07
-3.01923e-08
3.08212e-07
-2.14251e-08
3.06114e-07
-1.29732e-08
3.02729e-07
-4.88418e-09
2.98099e-07
2.79392e-09
2.9226e-07
1.00181e-08
2.85294e-07
1.67475e-08
2.7729e-07
2.29445e-08
2.68386e-07
2.85708e-08
2.58717e-07
3.35816e-08
2.48442e-07
3.79251e-08
2.37701e-07
4.15411e-08
2.2667e-07
4.43623e-08
2.15506e-07
4.63294e-08
2.04399e-07
4.73964e-08
1.93506e-07
4.75319e-08
1.83011e-07
4.67266e-08
1.73065e-07
4.49987e-08
1.6384e-07
4.23948e-08
1.55443e-07
3.8993e-08
1.47991e-07
3.49176e-08
1.41521e-07
3.03375e-08
1.36036e-07
2.54762e-08
1.31455e-07
2.06118e-08
1.27664e-07
1.60185e-08
1.24471e-07
1.1953e-08
1.21684e-07
8.63902e-09
1.1906e-07
6.25429e-09
1.16361e-07
4.91921e-09
1.13305e-07
4.6947e-09
1.09633e-07
5.57705e-09
1.05069e-07
7.50788e-09
9.93711e-08
1.04125e-08
9.22599e-08
1.42268e-08
8.34449e-08
1.88954e-08
7.25579e-08
2.43832e-08
5.91716e-08
3.06736e-08
4.27087e-08
3.77675e-08
2.24164e-08
4.57528e-08
-2.84942e-09
5.49228e-08
-3.47634e-08
6.58934e-08
-7.57217e-08
7.97961e-08
-1.29102e-07
9.87927e-08
-1.99747e-07
1.25833e-07
-2.9387e-07
1.6372e-07
-4.18438e-07
2.15252e-07
-5.79271e-07
2.83283e-07
-7.78923e-07
3.68845e-07
-1.01477e-06
4.69238e-07
-1.27704e-06
5.77828e-07
-1.5509e-06
6.85997e-07
-1.81877e-06
7.8234e-07
-2.06134e-06
8.5491e-07
-2.26173e-06
8.96118e-07
-2.4111e-06
9.04022e-07
-2.51068e-06
8.81384e-07
-2.56994e-06
8.34671e-07
-2.60226e-06
7.71737e-07
-2.62045e-06
6.99481e-07
-2.63389e-06
6.23813e-07
-2.64853e-06
5.49089e-07
-2.66673e-06
4.78442e-07
-2.68896e-06
4.13698e-07
-2.71443e-06
3.55814e-07
-2.74187e-06
3.05026e-07
-2.77e-06
2.61123e-07
-2.79774e-06
2.23534e-07
-2.82429e-06
1.91569e-07
-2.84914e-06
1.64479e-07
-2.87198e-06
1.41498e-07
-2.8927e-06
1.21967e-07
-2.91129e-06
1.05295e-07
-2.92778e-06
9.09829e-08
-2.94218e-06
7.86234e-08
-2.95462e-06
6.78625e-08
-2.96521e-06
5.83634e-08
-2.97409e-06
4.9926e-08
-2.98137e-06
4.24084e-08
-2.98716e-06
3.56213e-08
-2.99157e-06
2.94432e-08
-2.99467e-06
2.38264e-08
-2.99658e-06
1.86592e-08
-2.99737e-06
1.38082e-08
-2.99714e-06
9.34135e-09
-2.99592e-06
5.33934e-09
-2.99382e-06
1.61299e-09
-2.99091e-06
-1.91603e-09
-2.98723e-06
-5.02001e-09
-2.98285e-06
-7.82933e-09
-2.97784e-06
-1.04587e-08
-2.97225e-06
-1.27985e-08
-2.96614e-06
-1.48778e-08
-2.9596e-06
-1.67066e-08
-2.95266e-06
-1.82177e-08
-2.94542e-06
-1.9445e-08
-2.93795e-06
-2.04564e-08
-2.93028e-06
-2.12795e-08
-2.92245e-06
-2.19148e-08
-2.91448e-06
-2.23657e-08
-2.90645e-06
-2.26747e-08
-2.8984e-06
-2.28109e-08
-2.89039e-06
-2.28532e-08
-2.88248e-06
-2.28674e-08
-2.87471e-06
-2.26093e-08
-2.86718e-06
-2.22479e-08
-2.85994e-06
-2.19073e-08
-2.85297e-06