/*--------------------------------*- C++ -*----------------------------------*\
  =========                 |
  \\      /  F ield         | OpenFOAM: The Open Source CFD Toolbox
   \\    /   O peration     | Website:  https://openfoam.org
    \\  /    A nd           | Version:  13
     \\/     M anipulation  |
\*---------------------------------------------------------------------------*/
FoamFile
{
    format      ascii;
    class       volVectorField;
    location    "200";
    object      U;
}
// * * * * * * * * * * * * * * * * * * * * * * * * * * * * * * * * * * * * * //

dimensions      [0 1 -1 0 0 0 0];

internalField   nonuniform List<vector> 
12225
(
(9.7594 0.0524601 0)
(9.28835 0.109827 0)
(8.80548 0.113024 0)
(8.361 0.105891 0)
(7.96788 0.0869258 0)
(7.63345 0.0785691 0)
(7.34888 0.069399 0)
(7.11248 0.045397 0)
(6.92359 0.0339264 0)
(6.74126 0.0380359 0)
(6.59522 0.0414953 0)
(6.48738 0.0261198 0)
(6.39951 0.00520799 0)
(6.32888 -0.00466248 0)
(6.2702 -0.00128113 0)
(6.2333 0.00403174 0)
(6.2102 -0.00811372 0)
(6.21212 -0.011402 0)
(10.0975 0.0625452 0)
(10.2492 0.0906441 0)
(10.3708 0.0890418 0)
(10.418 0.0870424 0)
(10.4168 0.0881159 0)
(10.3924 0.0850226 0)
(10.3277 0.0797992 0)
(10.2566 0.0773663 0)
(10.1635 0.0729627 0)
(10.0801 0.062146 0)
(10.0004 0.0506483 0)
(9.90004 0.0492051 0)
(9.80768 0.0486582 0)
(9.72601 0.0447864 0)
(9.64674 0.0378271 0)
(9.56583 0.0302345 0)
(9.48712 0.0244903 0)
(9.41666 0.0150121 0)
(10.0206 0.0416227 0)
(10.09 0.0685756 0)
(10.1277 0.0786711 0)
(10.1703 0.0804872 0)
(10.2145 0.0820103 0)
(10.2567 0.082858 0)
(10.2942 0.0813414 0)
(10.3242 0.078677 0)
(10.3557 0.0777267 0)
(10.3815 0.0783561 0)
(10.3858 0.0762901 0)
(10.3831 0.0698075 0)
(10.3817 0.0635195 0)
(10.3775 0.059933 0)
(10.3715 0.05597 0)
(10.3644 0.0508978 0)
(10.3546 0.0433385 0)
(10.3403 0.0342368 0)
(10.0151 0.0305167 0)
(10.0536 0.0617081 0)
(10.0806 0.0703158 0)
(10.099 0.0742027 0)
(10.1139 0.0753075 0)
(10.1287 0.0746807 0)
(10.1433 0.0714169 0)
(10.1599 0.0678684 0)
(10.1693 0.0650202 0)
(10.177 0.0613662 0)
(10.1978 0.0603807 0)
(10.218 0.0588078 0)
(10.2312 0.0547474 0)
(10.2431 0.0509982 0)
(10.2542 0.047706 0)
(10.2645 0.043679 0)
(10.2729 0.038225 0)
(10.2797 0.0322415 0)
(10.0087 0.0250634 0)
(10.0326 0.0559386 0)
(10.0583 0.0662865 0)
(10.0756 0.0689274 0)
(10.0885 0.0699358 0)
(10.1011 0.070318 0)
(10.1118 0.068591 0)
(10.1211 0.0665158 0)
(10.13 0.0657065 0)
(10.1381 0.0633124 0)
(10.1459 0.0594652 0)
(10.1544 0.0552278 0)
(10.1622 0.0508644 0)
(10.1692 0.0470516 0)
(10.1759 0.0433474 0)
(10.1824 0.039205 0)
(10.1878 0.0342286 0)
(10.1922 0.0289166 0)
(10.0026 0.0210137 0)
(10.0215 0.0472043 0)
(10.0445 0.0600572 0)
(10.0619 0.0646491 0)
(10.0749 0.0662956 0)
(10.0873 0.0666826 0)
(10.0983 0.0653205 0)
(10.1075 0.0633242 0)
(10.1162 0.0610897 0)
(10.1245 0.0577121 0)
(10.1317 0.0547763 0)
(10.1385 0.0517924 0)
(10.1447 0.0482428 0)
(10.1504 0.0447652 0)
(10.1558 0.0412117 0)
(10.1607 0.0373099 0)
(10.1649 0.0329561 0)
(10.1682 0.0284089 0)
(10.001 0.0164099 0)
(10.0165 0.0413302 0)
(10.0364 0.0544177 0)
(10.0531 0.0600148 0)
(10.0663 0.062286 0)
(10.0779 0.0626297 0)
(10.0887 0.0615314 0)
(10.0979 0.0595117 0)
(10.1066 0.0574214 0)
(10.1144 0.0546376 0)
(10.1214 0.0516769 0)
(10.128 0.0485686 0)
(10.1339 0.0452387 0)
(10.1393 0.0419046 0)
(10.1443 0.0384424 0)
(10.1488 0.0347393 0)
(10.1526 0.030816 0)
(10.1556 0.0267797 0)
(10.001 0.0137193 0)
(10.0134 0.0354745 0)
(10.0304 0.0484913 0)
(10.0458 0.0546276 0)
(10.0586 0.0573841 0)
(10.0699 0.0580836 0)
(10.0802 0.057311 0)
(10.0892 0.0557504 0)
(10.0977 0.0539957 0)
(10.1054 0.0515744 0)
(10.1123 0.0488852 0)
(10.1186 0.0459512 0)
(10.1243 0.042753 0)
(10.1294 0.039476 0)
(10.1341 0.0360702 0)
(10.1384 0.0325132 0)
(10.142 0.0288681 0)
(10.1451 0.0252166 0)
(10.001 0.0117258 0)
(10.0109 0.0307355 0)
(10.0254 0.0431731 0)
(10.0394 0.0493705 0)
(10.0517 0.0523948 0)
(10.0626 0.0534536 0)
(10.0724 0.053078 0)
(10.0814 0.0519065 0)
(10.0895 0.0502057 0)
(10.097 0.0479827 0)
(10.1038 0.0454367 0)
(10.11 0.0426305 0)
(10.1156 0.0396199 0)
(10.1207 0.0365139 0)
(10.1253 0.0333076 0)
(10.1294 0.0300136 0)
(10.133 0.0266906 0)
(10.1361 0.0234018 0)
(10.0008 0.00983132 0)
(10.0087 0.02644 0)
(10.0211 0.0381216 0)
(10.0338 0.0443696 0)
(10.0455 0.0476183 0)
(10.056 0.0489651 0)
(10.0657 0.0489196 0)
(10.0745 0.0479544 0)
(10.0825 0.0463809 0)
(10.0898 0.0442985 0)
(10.0964 0.0419153 0)
(10.1025 0.0392827 0)
(10.1081 0.036478 0)
(10.1131 0.0335711 0)
(10.1177 0.0305741 0)
(10.1217 0.027514 0)
(10.1252 0.0244404 0)
(10.1284 0.0214108 0)
(10.0006 0.00814127 0)
(10.007 0.0225263 0)
(10.0173 0.0332448 0)
(10.0288 0.0392812 0)
(10.0397 0.042617 0)
(10.0498 0.0441664 0)
(10.0592 0.0443787 0)
(10.0679 0.0436509 0)
(10.0758 0.0422725 0)
(10.083 0.0404028 0)
(10.0896 0.0382144 0)
(10.0956 0.0357799 0)
(10.1011 0.0331705 0)
(10.1061 0.0304507 0)
(10.1106 0.0276503 0)
(10.1147 0.0248065 0)
(10.1182 0.0219641 0)
(10.1214 0.0191674 0)
(10.0005 0.00680565 0)
(10.0057 0.0193641 0)
(10.0145 0.0291057 0)
(10.0248 0.0348192 0)
(10.0349 0.0380816 0)
(10.0445 0.0396902 0)
(10.0535 0.0400512 0)
(10.062 0.0394988 0)
(10.0698 0.0382933 0)
(10.0769 0.0366097 0)
(10.0834 0.0346008 0)
(10.0894 0.0323492 0)
(10.0949 0.0299245 0)
(10.0998 0.0273868 0)
(10.1043 0.0247785 0)
(10.1083 0.0221387 0)
(10.1119 0.0195064 0)
(10.1151 0.0169145 0)
(10.0004 0.00564739 0)
(10.0047 0.0164464 0)
(10.0123 0.0251841 0)
(10.0214 0.030478 0)
(10.0307 0.0335886 0)
(10.0397 0.0351854 0)
(10.0483 0.0356345 0)
(10.0564 0.0352202 0)
(10.064 0.034174 0)
(10.071 0.0326672 0)
(10.0774 0.0308362 0)
(10.0833 0.0287654 0)
(10.0887 0.0265258 0)
(10.0936 0.0241757 0)
(10.0981 0.0217602 0)
(10.1021 0.0193201 0)
(10.1057 0.0168859 0)
(10.109 0.0144866 0)
(10.0004 0.00454828 0)
(10.0038 0.0135307 0)
(10.0102 0.0210393 0)
(10.0182 0.0257364 0)
(10.0266 0.028575 0)
(10.0349 0.030076 0)
(10.0429 0.0305501 0)
(10.0506 0.0302332 0)
(10.0578 0.0293264 0)
(10.0646 0.0279881 0)
(10.0708 0.0263401 0)
(10.0766 0.0244656 0)
(10.0819 0.0224319 0)
(10.0867 0.0202953 0)
(10.0911 0.0181004 0)
(10.0951 0.0158869 0)
(10.0987 0.0136779 0)
(10.1019 0.0114977 0)
(10.0003 0.00348858 0)
(10.0031 0.0105999 0)
(10.0084 0.016705 0)
(10.0153 0.0206227 0)
(10.0228 0.0230446 0)
(10.0304 0.0243416 0)
(10.0377 0.0247623 0)
(10.0449 0.0244926 0)
(10.0517 0.0236973 0)
(10.0581 0.0225136 0)
(10.0641 0.0210483 0)
(10.0696 0.0193782 0)
(10.0747 0.0175651 0)
(10.0794 0.0156598 0)
(10.0837 0.0137048 0)
(10.0876 0.0117355 0)
(10.0911 0.00977067 0)
(10.0944 0.00783186 0)
(10.0002 0.00245756 0)
(10.0025 0.00765521 0)
(10.0069 0.0122175 0)
(10.0129 0.0151759 0)
(10.0195 0.0170217 0)
(10.0262 0.0179884 0)
(10.033 0.0182579 0)
(10.0396 0.017968 0)
(10.046 0.0172436 0)
(10.052 0.016193 0)
(10.0576 0.0149036 0)
(10.0629 0.0134409 0)
(10.0678 0.0118579 0)
(10.0723 0.0101983 0)
(10.0764 0.00849833 0)
(10.0802 0.00678877 0)
(10.0836 0.00508288 0)
(10.0868 0.00340237 0)
(10.0002 0.00143885 0)
(10.0021 0.00468182 0)
(10.0058 0.00758045 0)
(10.0109 0.00940315 0)
(10.0167 0.0105019 0)
(10.0228 0.0109983 0)
(10.029 0.0110055 0)
(10.0351 0.0106132 0)
(10.041 0.009905 0)
(10.0466 0.00895547 0)
(10.052 0.00782645 0)
(10.0569 0.00656783 0)
(10.0616 0.00521925 0)
(10.0659 0.00381475 0)
(10.0699 0.0023817 0)
(10.0736 0.000944426 0)
(10.0769 -0.000489176 0)
(10.08 -0.00189817 0)
(10.0002 0.000393217 0)
(10.0018 0.00159952 0)
(10.005 0.00270294 0)
(10.0096 0.00321137 0)
(10.0148 0.00338322 0)
(10.0204 0.0032557 0)
(10.0261 0.00287677 0)
(10.0318 0.00228743 0)
(10.0373 0.00152839 0)
(10.0426 0.000636695 0)
(10.0477 -0.000355178 0)
(10.0525 -0.00141964 0)
(10.0569 -0.00253341 0)
(10.0611 -0.00367621 0)
(10.0649 -0.00483092 0)
(10.0685 -0.00598238 0)
(10.0717 -0.00712708 0)
(10.0748 -0.00824772 0)
(10.0002 -0.000765819 0)
(10.0017 -0.00179905 0)
(10.0048 -0.00268248 0)
(10.0091 -0.00367553 0)
(10.0141 -0.00459744 0)
(10.0195 -0.00548631 0)
(10.025 -0.00635907 0)
(10.0304 -0.0072247 0)
(10.0358 -0.00808897 0)
(10.0409 -0.00895611 0)
(10.0458 -0.00982841 0)
(10.0504 -0.0107042 0)
(10.0548 -0.0115811 0)
(10.0588 -0.0124546 0)
(10.0626 -0.0133206 0)
(10.066 -0.0141735 0)
(10.0693 -0.0150154 0)
(10.0722 -0.0158336 0)
(10.0002 -0.0019105 0)
(10.0019 -0.00512557 0)
(10.0053 -0.00790445 0)
(10.01 -0.010306 0)
(10.0153 -0.0122375 0)
(10.0209 -0.0138213 0)
(10.0265 -0.0151347 0)
(10.0321 -0.0162349 0)
(10.0376 -0.0171729 0)
(10.0428 -0.0179967 0)
(10.0477 -0.0187407 0)
(10.0523 -0.0194294 0)
(10.0566 -0.0200781 0)
(10.0606 -0.020699 0)
(10.0644 -0.0212976 0)
(10.0678 -0.0218785 0)
(10.071 -0.0224469 0)
(10.074 -0.022997 0)
(10.0002 -0.00299669 0)
(10.0024 -0.00820057 0)
(10.0064 -0.0125923 0)
(10.0117 -0.0161066 0)
(10.0176 -0.018789 0)
(10.0236 -0.0208641 0)
(10.0296 -0.0224583 0)
(10.0356 -0.0236686 0)
(10.0412 -0.0245931 0)
(10.0466 -0.0253201 0)
(10.0516 -0.0259116 0)
(10.0563 -0.0264113 0)
(10.0607 -0.0268493 0)
(10.0648 -0.0272486 0)
(10.0685 -0.0276222 0)
(10.072 -0.0279791 0)
(10.0752 -0.0283264 0)
(10.0782 -0.0286612 0)
(10.0003 -0.00420613 0)
(10.0031 -0.0114982 0)
(10.0081 -0.0173977 0)
(10.0144 -0.0218336 0)
(10.0211 -0.0250994 0)
(10.0277 -0.0275318 0)
(10.0343 -0.0292883 0)
(10.0406 -0.0305059 0)
(10.0466 -0.0313382 0)
(10.0522 -0.031912 0)
(10.0574 -0.0323136 0)
(10.0623 -0.0326011 0)
(10.0667 -0.03282 0)
(10.0708 -0.033 0)
(10.0746 -0.0331621 0)
(10.0781 -0.0333153 0)
(10.0814 -0.0334696 0)
(10.0843 -0.0336213 0)
(10.0005 -0.00564497 0)
(10.0042 -0.0152039 0)
(10.0106 -0.0224585 0)
(10.0182 -0.0275993 0)
(10.0258 -0.0313022 0)
(10.0332 -0.033974 0)
(10.0404 -0.0357724 0)
(10.0472 -0.0368934 0)
(10.0536 -0.0375545 0)
(10.0595 -0.0379201 0)
(10.0649 -0.0380929 0)
(10.0699 -0.0381442 0)
(10.0745 -0.0381282 0)
(10.0787 -0.0380841 0)
(10.0825 -0.0380339 0)
(10.086 -0.037989 0)
(10.0892 -0.0379572 0)
(10.0922 -0.03794 0)
(10.0007 -0.0074488 0)
(10.0059 -0.0194857 0)
(10.0143 -0.0278151 0)
(10.0233 -0.0333889 0)
(10.0318 -0.0373969 0)
(10.0401 -0.0402084 0)
(10.048 -0.0419399 0)
(10.0554 -0.0428705 0)
(10.0622 -0.0432955 0)
(10.0684 -0.0434074 0)
(10.0741 -0.0433178 0)
(10.0792 -0.0431102 0)
(10.0839 -0.0428504 0)
(10.0882 -0.0425849 0)
(10.0921 -0.0423338 0)
(10.0956 -0.0421062 0)
(10.0989 -0.0419069 0)
(10.1019 -0.0417446 0)
(10.0011 -0.00976312 0)
(10.0086 -0.0244637 0)
(10.0194 -0.0335256 0)
(10.03 -0.0392589 0)
(10.0396 -0.0433803 0)
(10.0487 -0.0461587 0)
(10.0574 -0.0477153 0)
(10.0655 -0.048407 0)
(10.0728 -0.0485869 0)
(10.0794 -0.048449 0)
(10.0854 -0.0480911 0)
(10.0909 -0.0476029 0)
(10.0958 -0.0470664 0)
(10.1002 -0.0465447 0)
(10.1042 -0.0460603 0)
(10.1079 -0.0456214 0)
(10.1112 -0.0452292 0)
(10.1143 -0.0448821 0)
(10.0017 -0.012824 0)
(10.0127 -0.0299763 0)
(10.0267 -0.0395203 0)
(10.0392 -0.0453898 0)
(10.05 -0.0494662 0)
(10.0603 -0.0519512 0)
(10.0702 -0.0531434 0)
(10.0793 -0.0535398 0)
(10.0875 -0.0534638 0)
(10.0949 -0.053093 0)
(10.1017 -0.0525334 0)
(10.1078 -0.0518493 0)
(10.1132 -0.0511163 0)
(10.118 -0.0504077 0)
(10.1223 -0.0497584 0)
(10.1262 -0.0491827 0)
(10.1297 -0.0486877 0)
(10.1329 -0.0482452 0)
(10.003 -0.0176524 0)
(10.0199 -0.0360172 0)
(10.0385 -0.0450236 0)
(10.0544 -0.0512073 0)
(10.0682 -0.0556376 0)
(10.0814 -0.0580092 0)
(10.0939 -0.0588051 0)
(10.1054 -0.0587246 0)
(10.1157 -0.0581469 0)
(10.1249 -0.0572452 0)
(10.1331 -0.0561865 0)
(10.1403 -0.0550779 0)
(10.1466 -0.0539753 0)
(10.152 -0.0529404 0)
(10.1566 -0.0519958 0)
(10.1607 -0.0511789 0)
(10.1643 -0.0504989 0)
(10.1675 -0.0499176 0)
(10.0083 -0.0267833 0)
(10.0398 -0.0459424 0)
(10.0708 -0.0522544 0)
(10.0975 -0.0575226 0)
(10.1213 -0.0623295 0)
(10.1438 -0.0652088 0)
(10.1638 -0.0664471 0)
(10.1806 -0.0666695 0)
(10.1941 -0.0661663 0)
(10.2047 -0.0651022 0)
(10.2126 -0.0636492 0)
(10.2182 -0.0620388 0)
(10.2217 -0.0604427 0)
(10.2236 -0.0589523 0)
(10.2243 -0.0576396 0)
(10.224 -0.0565691 0)
(10.2231 -0.0557288 0)
(10.2217 -0.0552334 0)
(10.0396 -0.0363136 0)
(10.1406 -0.062602 0)
(10.2158 -0.0680392 0)
(10.2629 -0.0697179 0)
(10.2901 -0.0708753 0)
(10.3015 -0.0705403 0)
(10.2988 -0.0689772 0)
(10.2846 -0.0668088 0)
(10.2618 -0.0643331 0)
(10.2328 -0.0616953 0)
(10.1993 -0.0588675 0)
(10.1627 -0.0560472 0)
(10.124 -0.0534338 0)
(10.0841 -0.0511332 0)
(10.0436 -0.0490982 0)
(10.0037 -0.0473922 0)
(9.96463 -0.0460874 0)
(9.92709 -0.0455769 0)
(9.88521 -0.037706 0)
(9.6328 -0.0749753 0)
(9.36445 -0.0881804 0)
(9.09003 -0.090038 0)
(8.83257 -0.0866039 0)
(8.59939 -0.0802968 0)
(8.39038 -0.0726833 0)
(8.2044 -0.0646711 0)
(8.04033 -0.0569595 0)
(7.89626 -0.0497703 0)
(7.77048 -0.0430902 0)
(7.66066 -0.0370408 0)
(7.56496 -0.0317235 0)
(7.48121 -0.027124 0)
(7.40768 -0.0233053 0)
(7.34166 -0.0202972 0)
(7.28146 -0.0179767 0)
(7.22663 -0.0166353 0)
(-0.00584326 0.0170917 -7.78924e-19)
(-0.0242422 0.0221351 8.40425e-19)
(-0.0419298 0.0141787 -6.13216e-19)
(-0.0423896 -0.00519278 -2.07864e-19)
(-0.0186078 -0.0301989 3.48279e-19)
(0.0160479 -0.0498459 -7.55551e-20)
(0.0569517 -0.0599852 -4.94915e-20)
(0.10219 -0.0635207 1.63463e-19)
(0.149011 -0.0630836 -7.38943e-20)
(0.19461 -0.0603711 2.10895e-20)
(0.237221 -0.0562639 7.71679e-21)
(0.276315 -0.051309 -9.04278e-20)
(0.31182 -0.0459256 1.33248e-19)
(0.343653 -0.0404566 1.40614e-19)
(0.371734 -0.0351028 1.22969e-20)
(0.396084 -0.0299896 5.19468e-20)
(0.416832 -0.0251599 2.02419e-20)
(0.434152 -0.0206595 3.44143e-20)
(0.448193 -0.0165829 4.99782e-20)
(0.459119 -0.0127976 5.23803e-21)
(0.467098 -0.00933897 -1.70182e-20)
(0.472308 -0.00623565 1.35513e-19)
(0.474917 -0.00355821 -1.66678e-20)
(0.475056 -0.00087333 1.30779e-19)
(0.472427 0.00214084 -2.6287e-20)
(0.467304 0.00504029 9.70147e-20)
(0.460035 0.00768463 4.74496e-20)
(0.450959 0.0098225 2.99276e-20)
(0.440441 0.0112829 -1.15542e-19)
(0.42885 0.0125518 -2.03577e-20)
(0.416507 0.013342 -1.35815e-19)
(0.403786 0.0136358 8.27819e-20)
(0.391039 0.0135182 6.13729e-20)
(0.378651 0.0126153 -7.79985e-20)
(0.366867 0.011318 -1.21429e-19)
(0.355948 0.00981974 -8.26662e-21)
(0.346171 0.00802641 4.74652e-20)
(0.33779 0.00604449 1.1851e-19)
(0.330939 0.0041459 8.38092e-20)
(0.325658 0.00223275 1.95536e-19)
(0.321903 0.000477622 7.77551e-20)
(0.319577 -0.00106949 2.05031e-20)
(0.31854 -0.00234511 -2.73527e-19)
(0.318573 -0.00323041 -5.61945e-20)
(0.319232 -0.00362783 1.15134e-19)
(0.320328 -0.00372144 5.88879e-21)
(0.321682 -0.00345883 2.72179e-19)
(0.323043 -0.0028286 8.72595e-20)
(0.32412 -0.00195552 3.52552e-20)
(0.324717 -0.000899221 -2.8899e-19)
(0.3244 0.000346264 2.35672e-19)
(0.322888 0.00174609 2.17409e-20)
(0.320071 0.00319201 3.08992e-19)
(0.31591 0.00456381 2.4943e-19)
(0.310478 0.00573528 1.00161e-19)
(0.303979 0.00655994 2.42868e-19)
(0.296782 0.00690853 3.43372e-19)
(0.289378 0.00664639 -3.94484e-19)
(0.282284 0.00572088 1.65766e-19)
(0.275987 0.00415731 1.98089e-19)
(0.270665 0.00212361 -4.95672e-19)
(0.266246 -0.000233877 -3.37515e-19)
(0.262313 -0.00264529 2.71977e-19)
(0.257954 -0.004673 3.35676e-19)
(0.251844 -0.00608246 9.72153e-20)
(0.24328 -0.00733028 -3.8888e-19)
(0.232734 -0.00911862 4.50643e-20)
(0.220244 -0.0113752 2.26662e-20)
(0.201161 -0.012933 1.20207e-19)
(0.164869 -0.0125735 6.2898e-19)
(0.108209 -0.01113 -3.53752e-20)
(-0.00133382 -0.00863695 -5.47243e-19)
(-0.193417 0.045674 3.73731e-19)
(-0.401659 0.116902 8.17279e-20)
(-0.661318 0.161926 -9.62974e-20)
(-0.960412 0.189526 6.20251e-20)
(-1.26025 0.203815 -7.9054e-21)
(-1.55825 0.205349 8.45219e-20)
(-1.83486 0.196439 3.45362e-20)
(-2.08479 0.17858 -4.65557e-20)
(-2.30353 0.157039 -1.24029e-20)
(-2.49086 0.134396 2.32686e-21)
(-2.64896 0.113136 4.43579e-20)
(-2.78102 0.0941631 5.33449e-20)
(-2.89091 0.0780016 4.5804e-20)
(-2.98228 0.064531 -4.55948e-20)
(-3.05854 0.0535026 9.55219e-20)
(-3.12257 0.0444359 -3.74751e-21)
(-3.17668 0.0367088 6.70236e-20)
(-3.22254 0.0303983 -9.42079e-20)
(-3.26176 0.0259724 -5.02044e-20)
(-3.29586 0.0224112 4.199e-20)
(-3.32558 0.0192703 6.07913e-20)
(-3.35177 0.0166363 -9.18942e-21)
(-3.37485 0.0142298 -5.67464e-20)
(-3.39528 0.0124517 -5.619e-20)
(-3.41359 0.0109066 5.75181e-20)
(-3.42985 0.00934321 -3.09104e-20)
(-3.44433 0.00802645 -7.35606e-20)
(-3.45715 0.00703625 -3.19683e-20)
(-3.46854 0.00610078 7.87126e-20)
(-3.4785 0.00509139 3.94562e-20)
(-3.48713 0.00436328 5.8857e-20)
(-3.49465 0.00374139 -3.59294e-20)
(-3.50108 0.00314411 1.14259e-20)
(-3.50659 0.00265398 3.9632e-21)
(-3.51127 0.00216369 -7.25494e-21)
(-3.51515 0.00166838 -1.56944e-20)
(-3.51827 0.00116357 -2.3543e-20)
(-3.52066 0.000868728 -3.82423e-20)
(-3.52257 0.000841998 -5.2348e-20)
(-3.52425 0.000735128 2.7683e-20)
(-3.52562 0.000539146 -3.86011e-20)
(-3.52678 0.000310375 -3.77228e-20)
(-3.52763 0.00011077 6.64436e-20)
(-3.52837 0.000152064 -3.92628e-21)
(-3.52896 0.000132802 -4.2638e-20)
(-3.52941 0.000110839 -4.44917e-20)
(-3.52969 0.000239605 4.11459e-20)
(-3.52991 0.000515637 3.09006e-21)
(-3.53017 0.000513145 1.24926e-20)
(-3.53017 0.00036554 -8.2471e-21)
(-3.53021 0.00037889 -2.43841e-20)
(-3.5302 0.000306992 2.09365e-20)
(-3.53019 -0.000122314 -1.88517e-20)
(-3.53007 -0.000579162 1.74706e-20)
(-3.5302 -0.000781204 2.43808e-20)
(-3.53075 -0.00131568 -8.96463e-21)
(-3.53153 -0.00241004 2.58811e-20)
(-3.53243 -0.00351811 -2.38283e-20)
(-3.53363 -0.00443616 6.04484e-20)
(-3.5351 -0.0052257 -5.55763e-21)
(-3.537 -0.00573829 -7.19704e-20)
(-3.53944 -0.00611852 1.83405e-20)
(-3.54217 -0.0060681 -4.79035e-21)
(-3.54531 -0.00576764 2.6914e-20)
(-3.54837 -0.00536317 3.70704e-20)
(-3.55159 -0.00468883 -3.35951e-20)
(-3.5546 -0.00405012 -1.33928e-20)
(-3.55743 -0.0031676 2.86486e-21)
(-3.56084 -0.00206315 -4.73814e-20)
(-3.56504 -0.00113848 -3.69271e-20)
(-3.57119 -0.000173773 1.74492e-20)
(-3.58067 0.00175621 1.68396e-20)
(-3.59496 0.00378025 2.71882e-20)
(-3.6147 0.00538328 3.58405e-20)
(-3.64064 0.00834709 2.43372e-20)
(-3.67367 0.0116251 3.48576e-20)
(-3.71243 0.0145433 -1.48381e-20)
(-3.7557 0.0189545 -1.14528e-20)
(-3.80234 0.023728 -1.56171e-20)
(-3.84842 0.0281387 -8.64306e-21)
(-3.89086 0.0331623 -1.71786e-20)
(-3.92625 0.038002 -7.85094e-22)
(-3.95056 0.0429705 -3.74374e-22)
(-3.96279 0.0477059 6.73129e-21)
(-3.96201 0.0508182 -1.555e-20)
(-3.94662 0.0524184 1.49768e-20)
(-3.91633 0.0524213 -3.24729e-21)
(-3.87119 0.0500081 -1.7e-20)
(-3.81364 0.0458502 -8.31849e-21)
(-3.74321 0.0385245 -2.65743e-20)
(-3.66294 0.0286295 -1.47238e-19)
(-3.56953 0.0157827 -8.00756e-20)
(-3.46177 0.000110685 -3.89596e-20)
(-3.33166 -0.0184583 -5.35807e-20)
(-3.17189 -0.0403669 -1.36406e-19)
(-2.97497 -0.0635324 4.92256e-21)
(-2.73496 -0.0895804 -9.32691e-20)
(-2.45135 -0.117963 -7.14097e-20)
(-2.12767 -0.14586 7.96654e-22)
(-1.77421 -0.171805 -2.9056e-21)
(-1.39892 -0.195122 1.59727e-20)
(-1.00944 -0.217347 -6.25735e-20)
(-0.590531 -0.240386 -1.0104e-18)
(-0.0856703 -0.240171 4.58122e-19)
(0.418899 -0.217558 2.86281e-19)
(0.864221 -0.18803 -5.12386e-19)
(1.26743 -0.157962 -4.6772e-19)
(1.51831 -0.108675 6.91761e-19)
(0.00324299 0.0344391 2.2598e-18)
(-0.00155807 0.0413336 -1.94578e-18)
(0.0148454 0.0150132 -6.46913e-19)
(0.0537176 -0.041206 8.78385e-19)
(0.0955515 -0.0926088 1.13664e-19)
(0.136749 -0.123168 5.084e-20)
(0.176216 -0.135351 -3.84683e-20)
(0.212514 -0.136063 -1.61609e-19)
(0.245113 -0.13058 -9.9927e-21)
(0.274217 -0.121937 -1.3549e-19)
(0.300221 -0.111703 7.53904e-21)
(0.323427 -0.100767 -1.99868e-21)
(0.344043 -0.0896699 4.60418e-20)
(0.362172 -0.0787392 6.62041e-21)
(0.377896 -0.0681572 -1.46321e-20)
(0.391315 -0.05803 -1.22357e-19)
(0.402519 -0.0484209 -2.62052e-20)
(0.411585 -0.0393645 1.13189e-19)
(0.418586 -0.0308665 -1.30851e-19)
(0.423618 -0.0229252 3.65725e-20)
(0.426781 -0.0155239 3.31387e-21)
(0.428182 -0.00864826 7.13442e-20)
(0.427938 -0.0022483 8.29464e-20)
(0.426291 0.00376799 7.07163e-20)
(0.42367 0.00936487 9.24698e-20)
(0.420032 0.0144006 -5.30363e-20)
(0.41536 0.0188103 1.33909e-20)
(0.409662 0.0225286 1.71032e-20)
(0.402947 0.0255198 -6.66737e-20)
(0.395252 0.0277573 -4.75732e-20)
(0.386718 0.0292159 -7.92957e-20)
(0.377456 0.0299033 -2.54571e-20)
(0.367618 0.0298226 -1.97467e-19)
(0.357406 0.0290401 8.45613e-20)
(0.347045 0.0276376 -1.26132e-19)
(0.336765 0.0256736 1.56327e-19)
(0.326788 0.0231814 -1.54551e-19)
(0.317274 0.0203122 4.41701e-20)
(0.308503 0.0171729 1.1493e-19)
(0.300608 0.013859 -9.15578e-20)
(0.293777 0.0105586 7.78786e-20)
(0.2881 0.00741815 -3.22217e-20)
(0.283594 0.00461244 -1.26242e-19)
(0.280249 0.0022976 -3.75019e-19)
(0.278023 0.000548325 -2.71423e-19)
(0.276616 -0.000637314 3.26908e-21)
(0.275722 -0.00126144 -3.51514e-19)
(0.275083 -0.00133156 -9.83546e-20)
(0.274455 -0.000853257 3.58862e-19)
(0.27361 0.000198701 5.67578e-19)
(0.272537 0.00178714 1.39903e-19)
(0.271116 0.00374475 -6.33669e-20)
(0.269172 0.00590519 -6.9797e-20)
(0.266539 0.00808255 -2.36815e-19)
(0.263067 0.0100769 -1.92933e-19)
(0.25862 0.0116605 -5.37045e-19)
(0.253085 0.0126194 -6.72016e-19)
(0.246325 0.0127609 -1.59101e-19)
(0.238173 0.0121342 1.12461e-19)
(0.228347 0.0109857 -6.05916e-19)
(0.216221 0.00977208 4.88016e-19)
(0.20107 0.00890684 -2.18772e-19)
(0.181895 0.00907023 -9.23254e-19)
(0.157155 0.0115961 7.46812e-20)
(0.125056 0.0164401 7.77246e-19)
(0.0822757 0.0232032 -3.4263e-19)
(0.0212047 0.0359224 4.64834e-20)
(-0.0795892 0.058911 -9.72311e-19)
(-0.240877 0.102392 2.29839e-19)
(-0.448055 0.168754 -2.54415e-19)
(-0.699394 0.249281 3.13421e-21)
(-0.990443 0.333793 -1.62918e-19)
(-1.3022 0.412634 4.78358e-21)
(-1.61106 0.474011 -6.33731e-20)
(-1.90743 0.507423 7.33772e-20)
(-2.17124 0.509455 -1.14846e-19)
(-2.39781 0.485016 1.39774e-20)
(-2.58078 0.441198 -1.02748e-19)
(-2.72596 0.388471 4.124e-21)
(-2.83858 0.332475 7.62606e-20)
(-2.92527 0.279152 1.4648e-20)
(-2.99252 0.231324 -4.32284e-20)
(-3.04543 0.190322 -6.37031e-20)
(-3.08821 0.156222 3.62211e-20)
(-3.12359 0.128438 1.00982e-19)
(-3.15368 0.106093 -3.17118e-20)
(-3.17973 0.0882271 -1.05395e-21)
(-3.20269 0.0739638 -2.63998e-21)
(-3.22318 0.062536 6.3053e-20)
(-3.2417 0.0533241 2.2052e-19)
(-3.25845 0.0458503 4.79122e-20)
(-3.27351 0.0397327 8.97061e-20)
(-3.28699 0.0346522 -1.94436e-19)
(-3.29908 0.0303777 -9.34997e-20)
(-3.30993 0.0267359 6.08569e-20)
(-3.31963 0.0235669 1.23922e-19)
(-3.32827 0.0208116 -6.82661e-20)
(-3.33594 0.0183662 -2.78264e-20)
(-3.34265 0.0161459 -4.80439e-20)
(-3.34847 0.0140901 6.98591e-20)
(-3.35345 0.012208 -9.72065e-20)
(-3.3577 0.0105815 -7.33172e-20)
(-3.36116 0.00908171 -4.73259e-20)
(-3.36406 0.00768312 1.568e-19)
(-3.36638 0.00649194 -1.7732e-20)
(-3.36815 0.00544921 1.10988e-20)
(-3.36956 0.00447234 5.79096e-20)
(-3.37063 0.00359355 1.24951e-19)
(-3.37142 0.00282201 -1.70924e-20)
(-3.37204 0.00214546 -4.81414e-20)
(-3.3725 0.0015922 3.8748e-21)
(-3.37262 0.00117008 -8.96093e-20)
(-3.37252 0.00077758 9.73782e-20)
(-3.37231 0.000458253 3.65862e-20)
(-3.37207 0.000184428 2.87483e-20)
(-3.3719 2.13301e-05 7.19106e-20)
(-3.3717 -0.00012881 8.67012e-20)
(-3.37167 -0.000248276 -4.53737e-20)
(-3.37156 -0.000357552 2.951e-20)
(-3.3716 -0.000425734 4.29925e-20)
(-3.37181 -0.000299835 5.23939e-20)
(-3.37192 -0.000142814 -6.03574e-21)
(-3.37227 -2.41368e-05 -2.26341e-21)
(-3.37265 0.000223789 -4.39814e-20)
(-3.37321 0.000550772 -4.10672e-20)
(-3.37401 0.000981581 -4.52008e-20)
(-3.37496 0.00143754 4.50254e-20)
(-3.37606 0.00190538 -6.49443e-21)
(-3.37747 0.0023837 -2.88719e-20)
(-3.37928 0.00284758 -5.8502e-21)
(-3.38158 0.00321593 -3.65706e-20)
(-3.38447 0.0035353 -4.79901e-20)
(-3.38786 0.00383021 -2.42473e-20)
(-3.39134 0.00396167 1.34458e-20)
(-3.39534 0.00400393 1.12179e-20)
(-3.39974 0.0041489 1.19397e-20)
(-3.40466 0.00430708 -1.47559e-20)
(-3.41016 0.00469732 7.82463e-20)
(-3.41655 0.00545346 -1.14249e-21)
(-3.42388 0.00636619 -4.22846e-20)
(-3.43261 0.00779459 2.17413e-20)
(-3.44314 0.00992416 -2.56847e-20)
(-3.4548 0.0123028 -9.80002e-21)
(-3.46833 0.0151971 1.7761e-20)
(-3.48266 0.0187003 5.0257e-21)
(-3.49823 0.0221497 2.40594e-20)
(-3.51493 0.0253792 1.37869e-20)
(-3.53233 0.0279958 -2.75862e-20)
(-3.55012 0.0295477 -3.9162e-20)
(-3.56818 0.0297322 4.53522e-20)
(-3.5863 0.0284302 -1.14401e-20)
(-3.60409 0.0253813 -1.88408e-21)
(-3.62167 0.02049 2.94142e-20)
(-3.63827 0.013949 -4.55274e-22)
(-3.65296 0.00604657 -1.49837e-22)
(-3.66316 -0.00271155 2.63908e-21)
(-3.66489 -0.012079 -6.03873e-21)
(-3.65636 -0.0217385 -2.36706e-20)
(-3.63582 -0.0313142 -4.07557e-20)
(-3.60202 -0.0401248 -5.63599e-20)
(-3.55401 -0.0482055 1.22555e-19)
(-3.49002 -0.0558345 -1.96519e-20)
(-3.40925 -0.0640097 5.79086e-20)
(-3.30732 -0.0747685 -1.68708e-19)
(-3.18048 -0.0901774 5.6199e-20)
(-3.02075 -0.112255 -2.31877e-19)
(-2.82141 -0.140796 2.2031e-19)
(-2.57612 -0.174025 3.06461e-19)
(-2.28365 -0.208008 3.84207e-19)
(-1.94572 -0.239041 1.29004e-19)
(-1.56327 -0.266179 2.85659e-20)
(-1.14379 -0.291046 -3.40384e-22)
(-0.681883 -0.316266 9.03777e-21)
(-0.163263 -0.345803 -1.97747e-19)
(0.343023 -0.366596 -2.29468e-19)
(0.798293 -0.361274 3.79927e-19)
(1.21997 -0.334213 5.16722e-19)
(1.6055 -0.294514 5.23762e-19)
(1.96345 -0.245283 2.78365e-19)
(2.22588 -0.16519 -6.2669e-19)
(-0.000339525 0.0274072 2.96047e-19)
(0.0149297 0.00634702 2.28363e-18)
(0.0582711 -0.0749133 1.21065e-18)
(0.1117 -0.15283 -6.11796e-19)
(0.15627 -0.193838 1.14297e-19)
(0.190428 -0.205257 -5.70473e-20)
(0.217552 -0.201073 -2.4233e-20)
(0.23985 -0.189986 1.84928e-19)
(0.258803 -0.176055 1.4262e-19)
(0.275348 -0.161025 1.16072e-19)
(0.289991 -0.145685 5.12639e-20)
(0.302983 -0.130428 4.79053e-20)
(0.314448 -0.115466 -1.50751e-19)
(0.324445 -0.100925 -9.24836e-20)
(0.332995 -0.0868906 3.28358e-20)
(0.340104 -0.073432 -7.01039e-20)
(0.345763 -0.0605925 6.77298e-20)
(0.349965 -0.048399 9.85497e-21)
(0.352714 -0.0368759 9.76877e-20)
(0.354026 -0.0260441 8.51279e-20)
(0.353927 -0.015925 -8.01998e-20)
(0.352454 -0.00654003 -2.13419e-19)
(0.349661 0.00209237 -3.77805e-20)
(0.345641 0.0099767 -2.37524e-19)
(0.340496 0.0171394 5.18667e-20)
(0.334364 0.0236102 7.9638e-20)
(0.327368 0.0293661 -3.14589e-20)
(0.319615 0.0343307 1.07197e-19)
(0.311217 0.038438 5.74875e-20)
(0.302286 0.0416461 1.27107e-19)
(0.292955 0.0439063 -6.38297e-20)
(0.283362 0.045184 -4.10993e-20)
(0.273657 0.0454535 2.10776e-20)
(0.263992 0.0447165 -2.66354e-20)
(0.254523 0.043018 -4.11306e-20)
(0.245425 0.0404301 -2.82672e-21)
(0.236862 0.0370101 -1.62059e-19)
(0.229011 0.0329068 6.05038e-20)
(0.221998 0.0282902 -1.553e-19)
(0.215924 0.0233481 -5.26807e-20)
(0.210831 0.0183656 4.49128e-20)
(0.206691 0.0135857 -4.38081e-20)
(0.203422 0.00925639 -8.81556e-20)
(0.200889 0.00560608 2.48209e-19)
(0.198918 0.00280796 2.82883e-19)
(0.197304 0.000962934 -1.94975e-19)
(0.195821 9.48075e-05 9.14697e-20)
(0.194227 0.000173275 -1.10223e-19)
(0.192282 0.00111899 -2.03049e-19)
(0.189768 0.00283109 -1.03696e-19)
(0.186494 0.00520308 -1.17005e-19)
(0.182291 0.00811352 2.32492e-19)
(0.176981 0.011417 4.1432e-20)
(0.170386 0.0149609 2.05426e-19)
(0.162302 0.0185482 2.60936e-20)
(0.152489 0.0219572 3.39322e-20)
(0.140634 0.0249801 1.4863e-19)
(0.126287 0.0275399 2.48844e-19)
(0.108774 0.0298971 -4.66589e-20)
(0.0870104 0.0328875 9.47945e-19)
(0.0593365 0.0376259 7.44736e-19)
(0.0231881 0.0450224 1.93477e-19)
(-0.02542 0.0564494 4.80119e-19)
(-0.09156 0.0756152 -1.13294e-18)
(-0.181908 0.106023 1.51729e-19)
(-0.309776 0.150738 5.33152e-19)
(-0.483935 0.21614 -7.07197e-19)
(-0.701918 0.302766 -2.55866e-19)
(-0.957461 0.404297 1.37722e-19)
(-1.23543 0.512555 8.80482e-20)
(-1.52163 0.616301 -1.57792e-19)
(-1.7986 0.701968 2.36157e-19)
(-2.04514 0.757197 2.58562e-20)
(-2.24508 0.774935 7.08235e-20)
(-2.39582 0.755479 -2.19605e-19)
(-2.50399 0.705415 2.02457e-19)
(-2.58032 0.635485 4.13453e-20)
(-2.63558 0.555476 -8.32811e-20)
(-2.67864 0.474793 -1.46914e-19)
(-2.71547 0.399127 -7.13146e-20)
(-2.74952 0.33194 1.12931e-20)
(-2.78237 0.274542 2.9845e-20)
(-2.81432 0.226841 -1.39341e-20)
(-2.84517 0.187889 -1.03017e-19)
(-2.87457 0.156409 -2.81491e-20)
(-2.90218 0.131074 -3.07027e-20)
(-2.92781 0.110655 1.82732e-20)
(-2.95138 0.0941074 -6.32849e-20)
(-2.97296 0.0805849 -9.07199e-20)
(-2.99259 0.0694693 -1.11615e-19)
(-3.01031 0.0603047 3.6013e-20)
(-3.0262 0.0526324 -1.3193e-19)
(-3.04034 0.0460749 1.28578e-19)
(-3.0529 0.0404167 1.11945e-20)
(-3.06397 0.0355254 -3.05497e-20)
(-3.07366 0.0312373 -5.71008e-20)
(-3.08204 0.0273696 1.98098e-20)
(-3.08929 0.0239298 9.59775e-20)
(-3.09545 0.0208092 7.93555e-20)
(-3.10062 0.0178718 3.53359e-20)
(-3.10491 0.0152117 4.2638e-20)
(-3.10835 0.0129398 2.14056e-20)
(-3.11101 0.0108374 1.98899e-20)
(-3.11298 0.00880611 -2.76818e-19)
(-3.11436 0.00715521 5.4804e-20)
(-3.11504 0.00569304 4.98442e-20)
(-3.11524 0.00429184 -9.73892e-20)
(-3.11494 0.00310524 8.31948e-20)
(-3.11422 0.00206706 -2.78379e-20)
(-3.11317 0.0011527 1.21586e-19)
(-3.11176 0.000470144 8.91405e-20)
(-3.1101 -1.65809e-05 6.32833e-20)
(-3.10821 -0.000426817 -4.20393e-20)
(-3.10616 -0.000787386 5.09535e-20)
(-3.10395 -0.00110489 3.28998e-20)
(-3.10165 -0.00133793 -4.026e-20)
(-3.0994 -0.0015433 -6.08422e-20)
(-3.09721 -0.00161471 1.92118e-19)
(-3.09506 -0.0016738 2.87972e-20)
(-3.093 -0.00184517 -6.72485e-20)
(-3.09107 -0.00178075 -1.71713e-19)
(-3.08943 -0.00168475 -2.20347e-20)
(-3.08804 -0.00165738 -1.43592e-21)
(-3.08688 -0.00151183 -6.33139e-20)
(-3.08599 -0.00128735 7.1139e-21)
(-3.08538 -0.000907392 5.30621e-20)
(-3.08502 -0.000378157 -1.50265e-19)
(-3.08491 0.000241891 5.17431e-20)
(-3.08507 0.000913943 2.13389e-20)
(-3.0856 0.00161129 8.59636e-20)
(-3.08639 0.00219356 -2.46784e-20)
(-3.0875 0.00271804 5.5489e-20)
(-3.0889 0.00348002 1.44368e-19)
(-3.09065 0.00421402 1.47944e-20)
(-3.09262 0.00463952 -6.11314e-20)
(-3.09503 0.00494653 1.59583e-20)
(-3.09801 0.00543292 1.34753e-20)
(-3.10125 0.00608364 -3.182e-20)
(-3.10509 0.0068992 -4.0252e-20)
(-3.10963 0.00819436 1.18671e-21)
(-3.11457 0.0100316 -1.42688e-20)
(-3.12012 0.0125817 8.75027e-20)
(-3.12633 0.0155333 9.44858e-21)
(-3.13252 0.0192923 8.3882e-21)
(-3.13932 0.0239945 1.37719e-20)
(-3.1467 0.0287732 -5.8443e-20)
(-3.15487 0.0336104 1.41843e-20)
(-3.16389 0.0381136 2.85808e-20)
(-3.1745 0.0415108 6.5468e-20)
(-3.18663 0.0434706 -9.43778e-20)