/*--------------------------------*- C++ -*----------------------------------*\
  =========                 |
  \\      /  F ield         | OpenFOAM: The Open Source CFD Toolbox
   \\    /   O peration     | Website:  https://openfoam.org
    \\  /    A nd           | Version:  13
     \\/     M anipulation  |
\*---------------------------------------------------------------------------*/
FoamFile
{
    format      ascii;
    class       volScalarField;
    location    "600";
    object      k;
}
// * * * * * * * * * * * * * * * * * * * * * * * * * * * * * * * * * * * * * //

dimensions      [0 2 -2 0 0 0 0];

internalField   nonuniform List<scalar> 
12225
(
0.404153
1.9283
1.89532
1.8159
1.7463
1.41994
2.8188
2.15302
1.71408
2.3759
2.85264
2.28198
1.60166
1.64933
1.2963
1.9637
1.90477
2.27557
0.336045
0.32935
0.348618
0.34912
0.323796
0.255124
0.345932
0.344222
0.386953
0.412193
0.418083
0.426763
0.426609
0.467733
0.483242
0.5663
0.594339
0.649221
0.359256
0.282
0.16276
0.0920954
0.0657412
0.0476186
0.0460567
0.0446086
0.04551
0.0487631
0.0515216
0.0557786
0.0590354
0.0658128
0.0697621
0.0785242
0.0835583
0.0942616
0.320463
0.27739
0.183781
0.126672
0.095654
0.0790384
0.0683959
0.0632053
0.0632476
0.0611795
0.058258
0.054089
0.0501979
0.0464024
0.0430669
0.0403046
0.0384572
0.037885
0.320812
0.279745
0.207299
0.184678
0.142988
0.130595
0.121348
0.115962
0.120123
0.120691
0.115983
0.110557
0.105714
0.101417
0.0959746
0.0913243
0.0864413
0.0805191
0.33474
0.321946
0.282286
0.26477
0.257037
0.24337
0.235365
0.233111
0.227368
0.220453
0.214059
0.20559
0.199889
0.193781
0.190094
0.183114
0.178638
0.171202
0.347118
0.347515
0.337016
0.326447
0.321814
0.317059
0.310125
0.303983
0.29804
0.292266
0.287328
0.281101
0.276482
0.270067
0.266272
0.259507
0.256267
0.249514
0.356692
0.356211
0.355017
0.351898
0.348888
0.345359
0.341055
0.336394
0.332268
0.327941
0.324193
0.319712
0.31601
0.311226
0.307688
0.302737
0.299868
0.295019
0.369355
0.36552
0.363409
0.361151
0.358825
0.356151
0.353265
0.350047
0.347122
0.344012
0.341259
0.338011
0.335188
0.331706
0.328938
0.325345
0.322992
0.319542
0.373136
0.370105
0.367538
0.365105
0.362945
0.360716
0.358482
0.356099
0.35387
0.351518
0.349363
0.346936
0.344728
0.342168
0.339995
0.337401
0.335481
0.332988
0.373747
0.371379
0.369054
0.366804
0.364707
0.36267
0.360728
0.35876
0.356905
0.355002
0.353215
0.351306
0.349518
0.347562
0.345814
0.343865
0.342278
0.340403
0.373826
0.371545
0.369373
0.367274
0.365284
0.363354
0.361527
0.359738
0.358049
0.356368
0.354776
0.353146
0.3516
0.349984
0.348494
0.346914
0.345545
0.344028
0.373833
0.37156
0.369414
0.367366
0.365427
0.363563
0.361798
0.360097
0.358489
0.356925
0.355439
0.353969
0.352568
0.35116
0.349837
0.34849
0.347268
0.345992
0.37383
0.371557
0.369409
0.367369
0.365438
0.363597
0.361853
0.360187
0.358608
0.357094
0.355655
0.354263
0.352938
0.351645
0.350419
0.349212
0.348083
0.346959
0.373828
0.371554
0.369402
0.36736
0.365426
0.363587
0.361843
0.360183
0.358608
0.357104
0.355676
0.354307
0.353006
0.351756
0.350566
0.34942
0.34833
0.347281
0.373826
0.371552
0.369396
0.367352
0.365413
0.363573
0.361824
0.360163
0.358582
0.35708
0.355646
0.354283
0.352981
0.351741
0.350556
0.349427
0.348346
0.347317
0.373825
0.37155
0.369393
0.367346
0.365405
0.363561
0.36181
0.360145
0.358562
0.357054
0.35562
0.354252
0.352949
0.351706
0.350522
0.349391
0.348312
0.347282
0.373825
0.371549
0.369391
0.367343
0.365399
0.363553
0.3618
0.360133
0.358548
0.357038
0.355601
0.354231
0.352927
0.351682
0.350496
0.349362
0.348282
0.34725
0.373825
0.371549
0.36939
0.367342
0.365398
0.363551
0.361798
0.360129
0.358543
0.357032
0.355594
0.354223
0.352917
0.351671
0.350484
0.349349
0.348268
0.347234
0.373825
0.37155
0.369392
0.367344
0.365402
0.363555
0.361804
0.360135
0.358551
0.357039
0.355603
0.354231
0.352927
0.351679
0.350493
0.349358
0.348278
0.347243
0.373825
0.371552
0.369395
0.36735
0.365408
0.363566
0.361813
0.360149
0.358564
0.357058
0.35562
0.354253
0.352947
0.351705
0.350517
0.349386
0.348304
0.347273
0.373826
0.371556
0.3694
0.367359
0.365419
0.363581
0.361831
0.360171
0.358589
0.357086
0.355652
0.354289
0.352985
0.351745
0.350559
0.349428
0.348347
0.347315
0.373827
0.371561
0.369408
0.367375
0.365436
0.363607
0.36186
0.360211
0.358632
0.35714
0.355706
0.354349
0.353042
0.3518
0.350605
0.349467
0.348374
0.34733
0.373825
0.371569
0.369424
0.367403
0.36547
0.363662
0.361921
0.3603
0.35872
0.357247
0.355794
0.354434
0.353084
0.351817
0.350561
0.349383
0.348224
0.347129
0.373808
0.371588
0.369477
0.367492
0.365583
0.36383
0.362102
0.360532
0.358919
0.357452
0.355897
0.354474
0.352965
0.351584
0.35014
0.348819
0.347471
0.346223
0.37372
0.371719
0.369758
0.367892
0.366079
0.364442
0.362703
0.361171
0.359401
0.357852
0.355977
0.354331
0.352404
0.350701
0.348822
0.347145
0.345403
0.343804
0.373494
0.372626
0.371233
0.369813
0.368275
0.366816
0.364963
0.363339
0.361184
0.359296
0.356671
0.354415
0.351619
0.349182
0.346539
0.344111
0.341835
0.339525
0.374076
0.378174
0.379538
0.380607
0.380182
0.379113
0.377215
0.374971
0.373161
0.37058
0.367371
0.364405
0.361259
0.358575
0.356281
0.35422
0.353135
0.351729
0.395074
0.424954
0.448233
0.465506
0.48449
0.496629
0.51111
0.51987
0.532321
0.53972
0.551763
0.559979
0.572565
0.583545
0.596361
0.610867
0.622208
0.636775
0.964654
1.25593
1.44794
1.55036
1.5985
1.59594
1.58021
1.55126
1.51386
1.47583
1.43931
1.40524
1.37411
1.34619
1.32094
1.29889
1.27911
1.26176
1.74969e-08
4.31871e-07
2.20019e-06
8.64845e-06
2.87625e-05
8.73072e-05
0.000227275
0.000450396
0.000727786
0.00102016
0.00127942
0.00148001
0.00160963
0.00165238
0.0016293
0.00155685
0.00142374
0.00120785
0.00102292
0.000866621
0.000720194
0.000579205
0.000443528
0.000317669
0.000206243
0.00012064
6.42116e-05
3.25863e-05
1.66833e-05
9.08015e-06
5.48103e-06
4.05977e-06
4.9676e-06
9.4189e-06
1.63396e-05
0.00012105
0.000285642
0.00065301
0.00102087
0.00116657
0.00109454
0.000903596
0.000744719
0.000695344
0.000730825
0.000932091
0.00119104
0.00223363
0.00467093
0.012723
0.0371026
0.0737314
0.105636
0.122392
0.138293
0.153476
0.169564
0.177921
0.175565
0.16271
0.166922
0.18604
0.162015
0.159604
0.171805
0.179755
0.188069
0.19596
0.204152
0.211661
0.219544
0.226953
0.234533
0.241865
0.249234
0.256469
0.263684
0.270816
0.277902
0.284927
0.291889
0.298799
0.305633
0.312416
0.31911
0.325747
0.332283
0.338755
0.345117
0.351391
0.357543
0.363573
0.369464
0.375214
0.380803
0.386226
0.391463
0.39652
0.401384
0.406089
0.410658
0.415184
0.419521
0.423737
0.427813
0.431747
0.435545
0.439191
0.442699
0.446045
0.449252
0.452292
0.455189
0.457916
0.460496
0.462903
0.46516
0.467244
0.469172
0.470925
0.472514
0.473927
0.475169
0.476237
0.477128
0.477845
0.478375
0.478726
0.47887
0.478818
0.478765
0.478591
0.478087
0.477492
0.47668
0.475801
0.474803
0.473592
0.472062
0.470432
0.468595
0.466622
0.464489
0.462221
0.459815
0.457284
0.454633
0.451884
0.449007
0.44607
0.442971
0.439848
0.436604
0.433311
0.429936
0.426525
0.423049
0.419557
0.416021
0.412482
0.408942
0.40542
0.401916
0.398441
0.394995
0.391585
0.388215
0.384892
0.381624
0.378413
0.375266
0.372176
0.369137
0.366124
0.363089
0.359942
0.356546
0.352601
0.347547
0.332101
8.16741e-08
2.28567e-06
1.52503e-05
6.59903e-05
0.00023867
0.000719729
0.00165437
0.00298249
0.00452274
0.00610684
0.00755097
0.00873667
0.00961199
0.01015
0.0104386
0.0104029
0.0102254
0.00987098
0.00929074
0.00849956
0.00750786
0.00636504
0.00512668
0.00386839
0.00267694
0.00176687
0.00111646
0.000687379
0.000413434
0.000250182
0.000159313
0.000112984
0.000104124
0.000147838
0.000126323
0.00131584
0.00295448
0.00632431
0.00946427
0.0113815
0.0115866
0.0112622
0.0110631
0.0119286
0.0147479
0.0192915
0.0274122
0.041994
0.0656506
0.0892254
0.113665
0.134143
0.15008
0.163229
0.177857
0.194693
0.210214
0.225975
0.241438
0.258533
0.277293
0.295231
0.312324
0.33086
0.350025
0.368029
0.386321
0.404056
0.421823
0.439262
0.456668
0.473896
0.491075
0.508161
0.525205
0.542199
0.559162
0.576095
0.593001
0.609882
0.626732
0.643554
0.660335
0.677076
0.693757
0.710382
0.726927
0.743397
0.759764
0.77602
0.792134
0.808087
0.823861
0.839433
0.854779
0.869869
0.884674
0.899161
0.913296
0.927048
0.940384
0.953303
0.966023
0.978457
0.990644
1.00255
1.01419
1.02553
1.03657
1.04731
1.05773
1.06783
1.0776
1.08703
1.09612
1.10486
1.11325
1.12127
1.12892
1.1362
1.14309
1.14959
1.15569
1.16139
1.16667
1.17153
1.17596
1.17996
1.18353
1.18666
1.18936
1.19162
1.19344
1.19482
1.19566
1.19623
1.19654
1.19666
1.19645
1.19575
1.19458
1.19298
1.19095
1.1885
1.18563
1.18238
1.17875
1.17476
1.17043
1.16571
1.1607
1.15534
1.14971
1.14377
1.13758
1.13113
1.12447
1.1176
1.11055
1.10336
1.09605
1.08865
1.08118
1.07365
1.06607
1.05845
1.0508
1.04314
1.03549
1.02785
1.02025
1.01267
1.00511
0.997539
0.989882
0.982009
0.973697
0.964622
0.952915
0.926691
2.04485e-07
6.14994e-06
4.68456e-05
0.000220653
0.000649823
0.0018662
0.00381062
0.00609254
0.0083986
0.0104994
0.0122603
0.0136178
0.0145694
0.0151382
0.0154066
0.015375
0.0151947
0.0148316
0.0143018
0.013646
0.0128568
0.0119336
0.0108514
0.00963193
0.00824874
0.00669541
0.0050911
0.0036689
0.00242212
0.00159461
0.0010832
0.000795909
0.000604068
0.000796832
0.00117172
0.00557444
0.0123398
0.0208004
0.0271683
0.0310816
0.0327935
0.0346149
0.0403193
0.0535996
0.0697492
0.0866888
0.105762
0.126154
0.145307
0.164943
0.184674
0.204533
0.225855
0.249525
0.275497
0.302289
0.329342
0.356726
0.384183
0.411758
0.439053
0.465738
0.491885
0.517622
0.542852
0.56749
0.591759
0.615625
0.639215
0.662533
0.685664
0.708623
0.731458
0.754184
0.776825
0.799393
0.821898
0.844343
0.866732
0.889064
0.911333
0.933537
0.955667
0.977714
0.999667
1.02152
1.04325
1.06485
1.08631
1.1076
1.1287
1.1496
1.17027
1.19069
1.21086
1.23075
1.25035
1.26963
1.28861
1.30726
1.32559
1.34359
1.36126
1.37857
1.3955
1.41206
1.42821
1.44395
1.45927
1.47415
1.48859
1.50257
1.51609
1.52914
1.54171
1.5538
1.56539
1.57649
1.58708
1.59715
1.60669
1.61571
1.62418
1.63211
1.63948
1.64629
1.65252
1.65818
1.66325
1.66774
1.67163
1.67493
1.67763
1.67975
1.68123
1.68212
1.68251
1.68248
1.68177
1.68044
1.67849
1.67594
1.67279
1.66906
1.66477
1.65994
1.65458
1.64871
1.64236
1.6355
1.62823
1.6205
1.61237
1.60385
1.59496
1.58572
1.57619
1.56637
1.55632
1.54606
1.53563
1.52506
1.51438
1.5036
1.49274
1.48182
1.47085
1.45985
1.44885
1.43786
1.42691
1.41601
1.40516
1.39433
1.38349
1.37254
1.36128
1.34944
1.33512
1.31057
7.0025e-07
2.0966e-05
0.000165766
0.000712929
0.002042
0.00491415
0.008366
0.0117634
0.014735
0.017101
0.018818
0.0199286
0.0205247
0.0206717
0.0205568
0.0202334
0.0196971
0.0190426
0.0183015
0.017492
0.0166153
0.0156722
0.0146452
0.0135196
0.0122727
0.0108891
0.00938154
0.00780881
0.00633667
0.00484462
0.00377604
0.00271838
0.00264895
0.00374703
0.0090713
0.022146
0.0365416
0.0480644
0.0566928
0.0643688
0.0734605
0.0853675
0.0996866
0.114273
0.129347
0.145433
0.164104
0.184467
0.20596
0.230019
0.255574
0.283246
0.31278
0.343951
0.376039
0.40842
0.440886
0.473282
0.505414
0.537184
0.568454
0.599187
0.629339
0.659005
0.688174
0.716907
0.745278
0.773334
0.801138
0.828731
0.856159
0.883454
0.910646
0.937751
0.964788
0.991765
1.01869
1.04556
1.07237
1.09913
1.12581
1.15243
1.17897
1.20541
1.23174
1.25795
1.28404
1.30998
1.33575
1.36134
1.38672
1.41187
1.43678
1.46143
1.4858
1.50987
1.53364
1.55707
1.58017
1.6029
1.62526
1.64721
1.66874
1.68982
1.71045
1.73059
1.75024
1.76936
1.78796
1.80602
1.82351
1.84045
1.8568
1.87257
1.88774
1.90231
1.91628
1.92962
1.94234
1.95442
1.96586
1.97664
1.98677
1.99623
2.00501
2.0131
2.02049
2.02718
2.03316
2.03843
2.04297
2.04678
2.04987
2.05224
2.05381
2.05462
2.05486
2.0544
2.05315
2.05116
2.04844
2.045
2.04084
2.03599
2.03046
2.02427
2.01746
2.01002
2.002
1.9934
1.98428
1.97462
1.96448
1.95387
1.94282
1.93135
1.91951
1.90734
1.89487
1.88215
1.86921
1.85609
1.84282
1.82942
1.81592
1.80233
1.78868
1.77498
1.76127
1.74757
1.73392
1.72032
1.70681
1.69338
1.68
1.66664
1.65315
1.63933
1.62354
1.60065
2.33792e-06
7.01313e-05
0.000532982
0.002059
0.0057495
0.0109044
0.0157758
0.0197218
0.0225635
0.0243787
0.0253468
0.0256666
0.025552
0.0251772
0.024525
0.023739
0.0228725
0.0219654
0.0210401
0.0201092
0.0191683
0.0182113
0.0172223
0.0161811
0.0150621
0.0138372
0.012496
0.0110793
0.00969328
0.0083826
0.00679026
0.00668552
0.00907158
0.0185274
0.0376685
0.0570799
0.0734829
0.0861876
0.0966449
0.106685
0.117436
0.129127
0.141779
0.15596
0.173047
0.192993
0.21546
0.240651
0.267908
0.297346
0.328279
0.360699
0.394149
0.42832
0.462834
0.497478
0.532156
0.566756
0.601169
0.635332
0.669171
0.702653
0.735749
0.768505
0.800931
0.833061
0.86494
0.896607
0.928102
0.959461
0.990715
1.02189
1.05301
1.08408
1.11511
1.14612
1.17709
1.20803
1.23892
1.26977
1.30056
1.33127
1.3619
1.39244
1.42286
1.45315
1.48331
1.51331
1.54314
1.57276
1.60217
1.63133
1.66023
1.68886
1.71718
1.74517
1.77282
1.8001
1.82698
1.85345
1.87946
1.90501
1.93005
1.95458
1.97855
2.00196
2.02478
2.04699
2.06857
2.08951
2.10978
2.12938
2.1483
2.16652
2.18403
2.20083
2.21691
2.23225
2.24686
2.26072
2.27381
2.28615
2.29771
2.30848
2.31846
2.32763
2.336
2.34354
2.35025
2.35613
2.36116
2.36535
2.36869
2.37119
2.37275
2.37343
2.37345
2.37258
2.37083
2.36823
2.3648
2.36053
2.35545
2.34957
2.34292
2.33551
2.32738
2.31853
2.30902
2.29884
2.28805
2.27666
2.26471
2.25222
2.23922
2.22574
2.21183
2.19753
2.18289
2.16794
2.15273
2.13729
2.12167
2.1059
2.08999
2.07397
2.05787
2.04171
2.02552
2.00935
1.99321
1.97716
1.96121
1.94538
1.92969
1.91412
1.89859
1.88294
1.86581
1.84343
7.31801e-06
0.00021527
0.0015633
0.00561173
0.0130533
0.0197613
0.0246444
0.0277318
0.0294106
0.0301037
0.0300935
0.0297518
0.0290144
0.0280645
0.027002
0.0258939
0.0247846
0.023704
0.0226661
0.0216746
0.0207199
0.0197895
0.0188612
0.017907
0.0169029
0.0158069
0.0145646
0.0131305
0.0115321
0.0107277
0.0117775
0.0174872
0.0320102
0.0549362
0.0782039
0.0973171
0.111391
0.12151
0.129938
0.138605
0.148469
0.160666
0.176045
0.194528
0.216267
0.241082
0.268384
0.297784
0.328707
0.360949
0.394167
0.428216
0.46288
0.498008
0.53346
0.569155
0.605028
0.641007
0.677016
0.712991
0.748875
0.78463
0.820232
0.855682
0.890984
0.926149
0.961201
0.996163
1.03106
1.06592
1.10075
1.13559
1.17043
1.20528
1.24015
1.27504
1.30992
1.34481
1.37967
1.41451
1.44929
1.48402
1.51866
1.55321
1.58765
1.62196
1.65612
1.69012
1.72393
1.75754
1.79092
1.82403
1.85687
1.8894
1.9216
1.95344
1.9849
2.01594
2.04652
2.07663
2.10623
2.13529
2.16377
2.19166
2.21892
2.24553
2.27145
2.29667
2.32116
2.34491
2.36789
2.39008
2.41149
2.43208
2.45186
2.47081
2.48893
2.5062
2.52261
2.53816
2.55284
2.56664
2.57955
2.59156
2.60267
2.61285
2.62211
2.63044
2.63782
2.64425
2.64972
2.65424
2.65779
2.66038
2.6619
2.66247
2.66222
2.66096
2.65874
2.65555
2.65143
2.64637
2.64041
2.63355
2.62582
2.61725
2.60785
2.59767
2.58672
2.57503
2.56265
2.5496
2.53591
2.52162
2.50675
2.49134
2.47545
2.45911
2.44237
2.42528
2.40789
2.39023
2.37234
2.35427
2.33604
2.31768
2.2992
2.28066
2.26207
2.24349
2.22495
2.20649
2.18817
2.17001
2.15204
2.13429
2.11671
2.09919
2.08057
2.05777
2.2985e-05
0.000636915
0.00423207
0.0133608
0.0225624
0.0286497
0.0321143
0.0338347
0.0344209
0.0342838
0.0336815
0.0326494
0.0313954
0.0300275
0.0286277
0.0272575
0.0259559
0.0247456
0.0236316
0.0226084
0.0216587
0.0207596
0.0198772
0.0189663
0.0179948
0.0170573
0.0162526
0.0158691
0.0166339
0.0204756
0.0303668
0.0494734
0.0735309
0.0965163
0.115625
0.129202
0.138305
0.145428
0.152823
0.162393
0.175354
0.191754
0.211661
0.23486
0.26093
0.289274
0.319263
0.350502
0.382704
0.415733
0.449462
0.483821
0.51874
0.55417
0.590063
0.626384
0.663084
0.700101
0.737376
0.774852
0.812479
0.850211
0.888017
0.925877
0.963779
1.00172
1.03971
1.07776
1.11587
1.15406
1.19234
1.23071
1.26918
1.30775
1.3464
1.38512
1.42391
1.46273
1.50156
1.54039
1.5792
1.61795
1.65664
1.69524
1.73372
1.77208
1.81028
1.84831
1.88614
1.92376
1.96114
1.99823
2.03503
2.0715
2.10761
2.14332
2.17861
2.21343
2.24774
2.28152
2.31473
2.34733
2.37929
2.41057
2.44114
2.47097
2.50002
2.52827
2.55569
2.58226
2.60795
2.63275
2.65664
2.67961
2.70164
2.72273
2.74286
2.76203
2.78023
2.79745
2.81368
2.82891
2.84314
2.85636
2.86855
2.87971
2.88984
2.89891
2.90693
2.91388
2.91976
2.92457
2.9283
2.93096
2.93243
2.93288
2.93233
2.93069
2.92798
2.92421
2.9194
2.91356
2.90672
2.89888
2.89009
2.88035
2.86971
2.85819
2.84583
2.83264
2.81869
2.80399
2.78858
2.7725
2.75578
2.73846
2.7206
2.70223
2.68342
2.66421
2.64465
2.62478
2.60465
2.58431
2.56377
2.54307
2.52223
2.50131
2.48033
2.45934
2.4384
2.41755
2.39685
2.37634
2.35607
2.33609
2.31637
2.29685
2.2765
2.25264
6.85109e-05
0.00174942
0.0100325
0.0229965
0.0312968
0.0358231
0.0380448
0.0388202
0.0386619
0.0378898
0.036592
0.0350153
0.0332972
0.0315467
0.0298458
0.0282526
0.0267991
0.0254973
0.0243417
0.0233164
0.0223947
0.0215436
0.0207052
0.0198375
0.0190822
0.0187103
0.0194303
0.0226131
0.0304014
0.04575
0.066796
0.0890732
0.110103
0.127495
0.140042
0.148504
0.155068
0.16262
0.172904
0.186626
0.204007
0.224829
0.248732
0.275178
0.303557
0.333314
0.364059
0.395601
0.427844
0.460752
0.494306
0.528507
0.563352
0.598843
0.634968
0.671702
0.70901
0.746851
0.785175
0.823933
0.863073
0.902551
0.942329
0.982376
1.02267
1.0632
1.10396
1.14494
1.18614
1.22757
1.26922
1.31108
1.35315
1.39542
1.43786
1.48046
1.52318
1.56599
1.60886
1.65176
1.69466
1.73753
1.78034
1.82307
1.86568
1.90816
1.95049
1.99263
2.03457
2.07627
2.11772
2.15887
2.1997
2.24017
2.28025
2.31989
2.35907
2.39773
2.43584
2.47335
2.51023
2.54643
2.58192
2.61665
2.65058
2.68367
2.7159
2.74722
2.7776
2.80701
2.83544
2.86286
2.88924
2.91459
2.93887
2.96209
2.98424
3.00529
3.02525
3.04411
3.06186
3.0785
3.09401
3.10839
3.12164
3.13373
3.14468
3.15445
3.16306
3.1705
3.17674
3.18181
3.18569
3.18838
3.18976
3.19005
3.18919
3.18714
3.18391
3.17953
3.17401
3.16736
3.15962
3.15079
3.14091
3.13
3.1181
3.10523
3.09144
3.07675
3.0612
3.04484
3.02771
3.00983
2.99124
2.972
2.95216
2.93176
2.91087
2.88954
2.86781
2.84573
2.82335
2.80071
2.77785
2.7548
2.7316
2.70827
2.68489
2.66148
2.63811
2.61484
2.59173
2.56883
2.54621
2.52392
2.50197
2.48032
2.458
2.4326
0.000178614
0.00416738
0.0188764
0.0318013
0.0386842
0.0420511
0.0433907
0.0434275
0.0426516
0.0411878
0.0393302
0.0372562
0.0351113
0.0330137
0.0310513
0.0292819
0.0277369
0.0264255
0.0253412
0.0244772
0.023817
0.0233953
0.0233253
0.0238083
0.0252378
0.0282467
0.0341197
0.0454226
0.0616292
0.0804165
0.0999859
0.118093
0.13321
0.144681
0.153237
0.160687
0.169225
0.180401
0.194976
0.213002
0.234218
0.258166
0.284322
0.312134
0.341118
0.370941
0.40144
0.432567
0.464328
0.496752
0.529875
0.563735
0.598367
0.633788
0.67
0.706999
0.744766
0.783272
0.822479
0.862343
0.90282
0.943865
0.985441
1.02751
1.07005
1.11303
1.15644
1.20027
1.24449
1.28911
1.33411
1.37946
1.42516
1.47117
1.51747
1.564
1.61074
1.65764
1.70465
1.75173
1.79884
1.84593
1.89297
1.93994
1.9868
2.03351
2.08006
2.12642
2.17255
2.21843
2.26403
2.30931
2.35424
2.39878
2.4429
2.48654
2.52966
2.57222
2.61417
2.65547
2.69607
2.73592
2.77497
2.81318
2.85049
2.88688
2.92229
2.95669
2.99004
3.0223
3.05346
3.08347
3.11234
3.14003
3.16655
3.19186
3.21597
3.23887
3.26054
3.28099
3.30021
3.31819
3.33493
3.35041
3.36463
3.3776
3.38929
3.3997
3.40883
3.41668
3.42322
3.42847
3.43243
3.43508
3.43633
3.4364
3.43516
3.43264
3.42885
3.42381
3.41753
3.41003
3.40133
3.39147
3.38046
3.36835
3.35515
3.34091
3.32567
3.30945
3.29229
3.27425
3.25536
3.23567
3.2152
3.19402
3.17218
3.14975
3.12677
3.1033
3.0794
3.0551
3.03046
3.00552
2.98033
2.95492
2.92932
2.90359
2.87778
2.85193
2.82612
2.80041
2.77485
2.74952
2.72449
2.69983
2.67555
2.65163
2.62718
2.59986
0.000400275
0.00851934
0.028033
0.0397713
0.0454552
0.047991
0.0486548
0.0480991
0.0466704
0.0446524
0.0422827
0.0397569
0.0372411
0.0348675
0.0327338
0.0309029
0.0294119
0.0282696
0.0274442
0.0270057
0.0268674
0.0272975
0.0286696
0.0317824
0.0376006
0.0467972
0.0594606
0.074353
0.0906127
0.106996
0.122206
0.135244
0.145966
0.154946
0.163518
0.173264
0.185477
0.200749
0.219123
0.24029
0.263819
0.289234
0.316077
0.343951
0.372574
0.401802
0.431603
0.462006
0.493068
0.524854
0.557434
0.590864
0.625187
0.660438
0.69664
0.733802
0.771919
0.810975
0.850943
0.891791
0.933483
0.975978
1.01924
1.06324
1.10793
1.1533
1.19932
1.24595
1.2932
1.34102
1.38939
1.43829
1.48768
1.53751
1.58775
1.63833
1.6892
1.7403
1.79157
1.84295
1.89438
1.94581
1.99721
2.04853
2.09974
2.15081
2.20169
2.25235
2.30277
2.3529
2.40273
2.45221
2.5013
2.54997
2.59816
2.64583
2.69293
2.73941
2.78523
2.83032
2.87464
2.91813
2.96074
3.00241
3.04309
3.08273
3.12129
3.15873
3.195
3.23006
3.26388
3.29644
3.32771
3.35767
3.38632
3.41365
3.43963
3.46427
3.48757
3.50951
3.5301
3.54932
3.56717
3.58364
3.59874
3.61246
3.62479
3.63573
3.64527
3.65342
3.66016
3.6655
3.66943
3.67194
3.673
3.67272
3.67104
3.66797
3.66353
3.65775
3.65064
3.64222
3.63251
3.62155
3.60937
3.59599
3.58146
3.5658
3.54906
3.53128
3.51249
3.49274
3.47208
3.45053
3.42817
3.40503
3.38119
3.3567
3.33163
3.30602
3.27994
3.25342
3.22652
3.19928
3.17175
3.14396
3.11596
3.08781
3.05956
3.03127
3.003
2.97482
2.9468
2.91901
2.89152
2.86442
2.83774
2.81147
2.78478
2.75559
0.000769347
0.0149229
0.0362382
0.0469712
0.0519595
0.053958
0.0541317
0.0530607
0.0511343
0.0486544
0.045878
0.0430266
0.0402906
0.0378207
0.035732
0.0341033
0.0329967
0.0325004
0.0324554
0.0331495
0.0349019
0.0381004
0.0431718
0.0503873
0.059806
0.0712368
0.0841775
0.0978235
0.111372
0.124093
0.135551
0.145728
0.155139
0.164769
0.17572
0.188863
0.204637
0.223042
0.243815
0.266579
0.290939
0.316534
0.343055
0.370275
0.398065
0.426394
0.455295
0.484837
0.515107
0.546193
0.578173
0.611114
0.645076
0.68011
0.716251
0.753522
0.791933
0.831481
0.872156
0.913935
0.956794
1.0007
1.04562
1.09153
1.13838
1.18614
1.23479
1.28429
1.33461
1.3857
1.43755
1.49009
1.54328
1.59705
1.65134
1.70608
1.7612
1.81662
1.87226
1.92805
1.98392
2.03981
2.09567
2.15145
2.20712
2.26262
2.31793
2.37298
2.42775
2.48221
2.53631
2.59002
2.64329
2.69609
2.74836
2.80005
2.8511
2.90146
2.95109
2.99991
3.04789
3.09494
3.14102
3.18605
3.22999
3.27278
3.31437
3.35472
3.39377
3.43149
3.46783
3.50278
3.5363
3.56837
3.599
3.62816
3.65585
3.68207
3.70682
3.73009
3.75187
3.77216
3.79095
3.80825
3.82406
3.83836
3.85116
3.86246
3.87226
3.88055
3.88734
3.89262
3.89639
3.89864
3.89937
3.89863
3.89637
3.89264
3.88745
3.88083
3.87279
3.86336
3.85256
3.84043
3.827
3.8123
3.79638
3.77926
3.761
3.74162
3.72117
3.69969
3.67722
3.65382
3.62954
3.60445
3.5786
3.55207
3.52491
3.49718
3.46893
3.4402
3.41105
3.38153
3.35167
3.32151
3.29113
3.26057
3.22989
3.19917
3.16845
3.13782
3.10733
3.07707
3.0471
3.01753
2.98839
2.95972
2.93071
2.8995
0.00125065
0.0218724
0.0438888
0.0541674
0.0587316
0.0602887
0.0600863
0.0586294
0.0563405
0.0535577
0.0505777
0.0476528
0.0449998
0.0428035
0.0412146
0.0404081
0.040232
0.040839
0.0424539
0.0452215
0.0493311
0.0549417
0.0621158
0.0707685
0.0806908
0.0915325
0.102816
0.114066
0.124938
0.135279
0.145176
0.155061
0.165618
0.177549
0.191391
0.207405
0.225568
0.245669
0.267411
0.290491
0.314634
0.339616
0.365264
0.391475
0.418215
0.445513
0.473437
0.502081
0.531545
0.561921
0.5933
0.625763
0.659383
0.694219
0.730322
0.767728
0.806463
0.846539
0.88796
0.93072
0.974808
1.0202
1.06686
1.11476
1.16387
1.21415
1.26555
1.31804
1.37157
1.42609
1.48156
1.5379
1.59503
1.65289
1.71137
1.7704
1.82988
1.88973
1.94985
2.01015
2.07054
2.13096
2.19135
2.25166
2.31185
2.37185
2.43162
2.4911
2.55025
2.60902
2.66738
2.72529
2.7827
2.83957
2.89584
2.95145
3.00634
3.06046
3.11376
3.16616
3.21762
3.26806
3.31741
3.3656
3.41257
3.45828
3.50266
3.54567
3.58726
3.62737
3.66598
3.70305
3.73855
3.77247
3.80479
3.83551
3.86463
3.89216
3.91809
3.94242
3.96514
3.98624
4.00573
4.02361
4.03987
4.05451
4.06755
4.07898
4.08881
4.09704
4.10367
4.10869
4.11211
4.11393
4.11414
4.1128
4.10981
4.10526
4.09919
4.0916
4.08253
4.07199
4.06001
4.04662
4.03187
4.01578
3.99841
3.97979
3.95996
3.93896
3.91684
3.89362
3.86935
3.84409
3.8179
3.79087
3.76304
3.7345
3.70529
3.67547
3.64509
3.6142
3.58285
3.55108
3.51892
3.48645
3.45372
3.42079
3.38774
3.35463
3.32151
3.28845
3.25552
3.22281
3.19038
3.15833
3.12673
3.09563
3.06428
3.03101
0.00183473
0.0283117
0.0510591
0.0612942
0.0656992
0.0670395
0.066596
0.0648816
0.0623888
0.0595142
0.0566118
0.0539605
0.0517788
0.0503137
0.0496934
0.0497058
0.0507487
0.0528074
0.0559359
0.0601781
0.0655781
0.0721112
0.0796629
0.0880556
0.0970786
0.106498
0.116105
0.125761
0.135446
0.145303
0.155657
0.166941
0.179556
0.193794
0.209774
0.227453
0.246669
0.267211
0.288858
0.311417
0.33473
0.358683
0.383202
0.408268
0.4339
0.460165
0.48715
0.514954
0.543685
0.573444
0.60433
0.636434
0.66984
0.704623
0.740843
0.778547
0.817773
0.858553
0.900906
0.944839
0.990351
1.03743
1.08605
1.13618
1.18779
1.24084
1.29526
1.35101
1.40803
1.46624
1.52557
1.58594
1.64724
1.70935
1.77215
1.83556
1.89947
1.96378
2.02839
2.0932
2.15811
2.22305
2.28796
2.35278
2.41745
2.48193
2.54612
2.60998
2.67343
2.73642
2.79893
2.86091
2.92231
2.98309
3.04317
3.1025
3.16101
3.21865
3.27534
3.33104
3.38568
3.43918
3.49146
3.54246
3.59211
3.64035
3.68714
3.73241
3.77613
3.81824
3.85871
3.89749
3.93457
3.96992
4.00352
4.03539
4.06555
4.09399
4.12072
4.14572
4.16899
4.19055
4.21037
4.22848
4.24486
4.25952
4.27246
4.28372
4.29328
4.30116
4.30735
4.31187
4.3147
4.31585
4.31535
4.31317
4.30925
4.30373
4.29661
4.28792
4.27767
4.2659
4.25263
4.2379
4.22174
4.20421
4.18533
4.16516
4.14374
4.12112
4.09732
4.07238
4.04632
4.01923
3.99118
3.96225
3.93251
3.90201
3.87081
3.83898
3.80655
3.77358
3.74011
3.70616
3.67179
3.63708
3.60208
3.56689
3.53155
3.49613
3.46068
3.42528
3.38999
3.35487
3.32003
3.28556
3.25153
3.21803
3.18436
3.14907
0.0026061
0.0340104
0.0582249
0.0686424
0.0729663
0.0741569
0.0735172
0.071618
0.0690498
0.0662704
0.063704
0.0616393
0.0602893
0.0597262
0.0597945
0.0609067
0.0629842
0.0659967
0.0699324
0.0747741
0.0804692
0.0869346
0.0940638
0.101756
0.109924
0.118499
0.127457
0.13685
0.146811
0.157548
0.169296
0.182264
0.19657
0.212248
0.229241
0.247432
0.266676
0.286828
0.307759
0.329373
0.351598
0.374404
0.397787
0.421777
0.446429
0.471831
0.498078
0.525278
0.553533
0.582947
0.613626
0.64567
0.679172
0.714217
0.750879
0.789224
0.829308
0.871177
0.914866
0.960395
1.00777
1.057
1.10804
1.16089
1.21548
1.27178
1.3297
1.38917
1.4501
1.51238
1.57591
1.64057
1.70621
1.77268
1.83985
1.90758
1.9758
2.04443
2.11338
2.18253
2.2518
2.32108
2.39033
2.45949
2.52848
2.59724
2.66567
2.73369
2.8012
2.86818
2.93458
3.00035
3.06545
3.1298
3.19336
3.25604
3.31778
3.37852
3.43818
3.49672
3.55405
3.61011
3.66481
3.71808
3.76984
3.82006
3.86867
3.91564
3.9609
4.00441
4.04615
4.08606
4.12414
4.16036
4.19471
4.22722
4.25788
4.28671
4.31369
4.33884
4.36215
4.38363
4.40328
4.42112
4.43716
4.45138
4.46382
4.47449
4.48341
4.49057
4.49599
4.49967
4.50161
4.50181
4.50036
4.49704
4.49199
4.48528
4.47694
4.46697
4.45541
4.44228
4.42761
4.41144
4.39381
4.37477
4.35435
4.33261
4.30959
4.28534
4.2599
4.23327
4.20547
4.17662
4.1468
4.11607
4.0845
4.05215
4.01907
3.98532
3.95096
3.91603
3.88057
3.84457
3.80811
3.77128
3.73416
3.69683
3.65933
3.62174
3.5841
3.54648
3.50893
3.47152
3.43437
3.39757
3.36121
3.3254
3.28948
3.25229
0.00342597
0.0398795
0.0652284
0.0759105
0.0802415
0.08135
0.0805278
0.0783853
0.0757239
0.0731968
0.0711966
0.0699804
0.0694951
0.0695013
0.0704563
0.0723056
0.0749986
0.0784836
0.0827217
0.0876739
0.0932972
0.0995531
0.106413
0.113855
0.121873
0.1305
0.139801
0.149868
0.160814
0.172748
0.185743
0.199834
0.215001
0.231189
0.248313
0.266282
0.285006
0.304417
0.324464
0.345124
0.366394
0.388294
0.410862
0.434163
0.458274
0.483266
0.509243
0.536314
0.564593
0.594195
0.625232
0.657812
0.692042
0.72802
0.765836
0.805566
0.847281
0.891036
0.936878
0.984836
1.03492
1.08713
1.14142
1.19776
1.25608
1.31633
1.37841
1.44219
1.50752
1.57426
1.64222
1.71126
1.78122
1.85194
1.92323
1.99492
2.06702
2.13949
2.21228
2.28534
2.35849
2.43167
2.50484
2.57791
2.6508
2.72339
2.7956
2.8673
2.93842
3.00891
3.07871
3.14778
3.21605
3.28346
3.34994
3.41541
3.47979
3.54302
3.60503
3.66575
3.72512
3.78306
3.83948
3.89431
3.94748
3.99893
4.04863
4.09652
4.14257
4.18673
4.22897
4.26926
4.30758
4.34394
4.37834
4.41078
4.44124
4.46974
4.49628
4.52087
4.54352
4.56425
4.58306
4.59999
4.61505
4.62826
4.63965
4.64921
4.65697
4.66294
4.66714
4.66957
4.67024
4.6692
4.66632
4.66158
4.65513
4.647
4.6372
4.62577
4.61271
4.59807
4.58187
4.56416
4.54497
4.52434
4.50232
4.47897
4.45432
4.42844
4.40136
4.3731
4.34368
4.3132
4.28175
4.24937
4.21612
4.18206
4.14725
4.11174
4.0756
4.03887
4.00159
3.96372
3.92536
3.88662
3.84757
3.80829
3.76882
3.72924
3.68959
3.64993
3.61028
3.57075
3.53145
3.49249
3.45395
3.41596
3.37791
3.33902
0.00430456
0.0458213
0.0722348
0.0831252
0.0874392
0.088408
0.0873424
0.0850457
0.0825609
0.0805088
0.0792525
0.0787421
0.0786886
0.0794235
0.0809554
0.0832698
0.0863212
0.0900652
0.0944793
0.0995505
0.105276
0.111661
0.118719
0.126479
0.134983
0.144281
0.154422
0.16545
0.177394
0.190264
0.204037
0.218684
0.234148
0.250372
0.267295
0.284881
0.303101
0.321951
0.341438
0.361589
0.38244
0.404059
0.426537
0.449982
0.474386
0.499814
0.526441
0.55437
0.583722
0.614623
0.647187
0.68153
0.717769
0.75601
0.796349
0.838869
0.883633
0.93068
0.980047
1.03176
1.08583
1.1422
1.20079
1.26155
1.32439
1.38923
1.45596
1.52443
1.59446
1.66579
1.73811
1.81126
1.88512
1.9596
2.0345
2.10965
2.18518
2.26102
2.33713
2.41336
2.48958
2.56583
2.64216
2.71843
2.79445
2.87009
2.94525
3.01985
3.09378
3.16697
3.23935
3.31086
3.38145
3.45104
3.51955
3.58689
3.65298
3.71774
3.78112
3.84305
3.90347
3.96228
4.01942
4.07478
4.12831
4.17995
4.22968
4.27746
4.32326
4.36701
4.40871
4.44833
4.48584
4.52128
4.55464
4.58594
4.61517
4.64236
4.66752
4.69066
4.7118
4.73096
4.74817
4.76344
4.7768
4.78829
4.79792
4.80571
4.81168
4.81586
4.81828
4.81896
4.81798
4.81514
4.8104
4.80394
4.79579
4.78595
4.77447
4.76136
4.74665
4.73035
4.71252
4.69318
4.67237
4.65013
4.62651
4.60155
4.57531
4.54784
4.51917
4.48937
4.45849
4.42656
4.39364
4.35976
4.325
4.28939
4.25301