/*--------------------------------*- C++ -*----------------------------------*\
  =========                 |
  \\      /  F ield         | OpenFOAM: The Open Source CFD Toolbox
   \\    /   O peration     | Website:  https://openfoam.org
    \\  /    A nd           | Version:  13
     \\/     M anipulation  |
\*---------------------------------------------------------------------------*/
FoamFile
{
    format      ascii;
    class       volScalarField;
    location    "600";
    object      nut;
}
// * * * * * * * * * * * * * * * * * * * * * * * * * * * * * * * * * * * * * //

dimensions      [0 2 -1 0 0 0 0];

internalField   nonuniform List<scalar> 
12225
(
4.01898e-06
1.94715e-05
1.95494e-05
1.91353e-05
1.88313e-05
1.56374e-05
3.16408e-05
2.46624e-05
1.99877e-05
2.81369e-05
3.4261e-05
2.77685e-05
1.97366e-05
2.05278e-05
1.62625e-05
2.48e-05
2.41771e-05
2.90525e-05
4.69364e-05
1.99096e-05
1.89172e-05
1.96256e-05
1.70407e-05
1.38453e-05
1.94432e-05
1.73694e-05
1.9337e-05
2.15464e-05
2.20596e-05
2.17207e-05
2.0915e-05
2.32773e-05
2.43532e-05
2.82426e-05
2.95978e-05
3.24568e-05
0.000133705
7.29383e-05
3.08755e-05
9.7746e-06
7.55738e-06
5.57802e-06
5.30728e-06
4.46831e-06
4.39349e-06
4.7492e-06
5.14818e-06
5.72347e-06
6.22762e-06
7.20714e-06
7.73948e-06
8.78833e-06
9.48184e-06
1.0714e-05
1.25062e-05
1.67514e-05
1.34675e-05
1.15762e-05
9.75263e-06
8.44837e-06
7.60362e-06
7.39325e-06
7.98409e-06
8.55005e-06
8.97261e-06
8.86447e-06
8.83266e-06
8.73987e-06
8.43657e-06
8.31477e-06
8.08649e-06
7.96225e-06
8.10417e-06
9.37911e-06
8.32627e-06
1.18017e-05
1.11591e-05
1.23206e-05
1.38646e-05
1.51877e-05
1.81683e-05
2.04931e-05
2.18304e-05
2.24501e-05
2.27135e-05
2.3104e-05
2.25953e-05
2.30431e-05
2.25652e-05
2.11404e-05
1.78788e-05
2.1988e-05
2.19156e-05
3.04585e-05
4.55513e-05
4.49138e-05
4.78387e-05
5.67955e-05
6.01698e-05
6.16782e-05
6.69808e-05
7.06428e-05
7.45412e-05
7.56134e-05
7.53123e-05
7.39216e-05
7.20198e-05
7.09122e-05
4.27631e-05
6.67393e-05
6.82934e-05
7.56767e-05
0.000108006
0.000153111
0.000143874
0.000146142
0.000147931
0.00016431
0.000164121
0.000163718
0.000164536
0.000163788
0.000163852
0.000162031
0.000162149
0.000159334
0.000102569
0.000111424
0.000180655
0.000272904
0.000343242
0.000389669
0.00038252
0.000368974
0.000359791
0.000351631
0.000346635
0.000338375
0.000328894
0.000320039
0.000312738
0.000306919
0.000303744
0.000296968
0.000453859
0.000272169
0.000354206
0.000479693
0.000575112
0.00061746
0.000609041
0.000585273
0.000570801
0.000556306
0.000541901
0.000527212
0.000513441
0.000500028
0.000488684
0.000477732
0.000469162
0.00045961
0.000829785
0.000586782
0.00057226
0.000594171
0.000674146
0.00073122
0.00074414
0.000736516
0.000725391
0.000711334
0.000697617
0.000683562
0.000670377
0.000657359
0.000645257
0.000633412
0.000623477
0.000610785
0.000847648
0.000835715
0.000776349
0.000763972
0.000767212
0.000792626
0.000807802
0.000808342
0.000804023
0.000796452
0.000788678
0.000779745
0.000771265
0.00076188
0.000753176
0.000743665
0.000736091
0.000725146
0.000850827
0.000850932
0.000844217
0.000839705
0.000836931
0.000837131
0.000837189
0.000835693
0.000832707
0.000829298
0.000825609
0.000821144
0.000816657
0.000811187
0.000806029
0.00080024
0.000795053
0.000788508
0.000851636
0.00085092
0.000849899
0.000848691
0.000847655
0.000846665
0.000845762
0.000844535
0.000843245
0.000841529
0.000839903
0.000837812
0.000835795
0.000833702
0.000831325
0.000828558
0.00082633
0.000822695
0.000851596
0.000850721
0.00084995
0.000849146
0.00084845
0.000847684
0.000847017
0.000846226
0.000845536
0.000844673
0.000843929
0.00084299
0.000842175
0.00084107
0.000840181
0.000838856
0.000837909
0.000836422
0.000851553
0.000850678
0.000849877
0.000849088
0.000848375
0.000847655
0.00084701
0.000846341
0.000845747
0.000845114
0.000844558
0.00084395
0.000843419
0.000842815
0.000842289
0.000841674
0.00084114
0.000840519
0.00085154
0.000850674
0.000849858
0.000849075
0.000848339
0.00084763
0.000846965
0.00084632
0.000845715
0.000845127
0.000844573
0.000844033
0.000843524
0.000843026
0.000842554
0.000842091
0.00084165
0.000841217
0.000851538
0.000850673
0.000849852
0.00084907
0.000848328
0.00084762
0.000846947
0.000846304
0.000845693
0.000845107
0.000844549
0.000844013
0.000843504
0.000843014
0.000842547
0.000842098
0.00084167
0.000841257
0.000851539
0.000850677
0.000849858
0.000849077
0.000848334
0.000847627
0.000846953
0.00084631
0.000845697
0.00084511
0.000844551
0.000844015
0.000843503
0.000843012
0.000842544
0.000842094
0.000841665
0.000841254
0.000851537
0.000850674
0.000849851
0.000849069
0.000848323
0.000847614
0.000846938
0.000846293
0.000845678
0.000845089
0.000844528
0.00084399
0.000843476
0.000842984
0.000842514
0.000842063
0.000841633
0.00084122
0.000851533
0.000850677
0.000849847
0.000849071
0.000848321
0.000847617
0.000846937
0.000846296
0.000845678
0.000845092
0.000844529
0.000843991
0.000843477
0.000842985
0.000842515
0.000842063
0.000841633
0.000841219
0.000851521
0.000850695
0.000849835
0.000849094
0.000848312
0.00084764
0.000846935
0.000846317
0.000845683
0.000845112
0.000844539
0.00084401
0.00084349
0.000842999
0.000842526
0.000842069
0.000841636
0.000841214
0.000851502
0.000850724
0.000849808
0.00084914
0.00084828
0.000847696
0.000846905
0.000846366
0.000845657
0.000845135
0.000844503
0.000843987
0.000843404
0.0008429
0.000842343
0.000841862
0.000841295
0.000840887
0.0008515
0.000850722
0.000849828
0.000849146
0.000848265
0.000847686
0.000846771
0.000846232
0.000845298
0.000844715
0.000843753
0.000843037
0.000842024
0.000841155
0.000840099
0.000839101
0.000837975
0.000836996
0.000851418
0.000850808
0.000849841
0.000848991
0.000847784
0.000846612
0.000844872
0.000843453
0.00084119
0.000839304
0.000836453
0.000833941
0.000830763
0.000827601
0.000824115
0.000820825
0.000817015
0.00081381
0.00085116
0.000850947
0.00084877
0.000845859
0.000840836
0.000834838
0.000827879
0.000820931
0.000811868
0.000803689
0.000793432
0.000784401
0.000773605
0.00076445
0.000753771
0.000745188
0.000735105
0.000727238
0.000850206
0.000841651
0.000832701
0.000814099
0.000788623
0.000765307
0.000737985
0.000714903
0.000689076
0.00066792
0.000644785
0.000625854
0.000605572
0.000589358
0.00057159
0.000558474
0.000542769
0.000532386
0.000829768
0.000773451
0.000727204
0.000653892
0.000584011
0.000532715
0.00048368
0.000449432
0.000415791
0.000392435
0.000368259
0.000350949
0.000332878
0.000319503
0.000305415
0.000295149
0.000283658
0.000275921
0.000717937
0.0004814
0.000384239
0.000294985
0.000239195
0.000205809
0.000179557
0.000163552
0.000149752
0.000141181
0.000132298
0.000126817
0.000120755
0.000116664
0.000112385
0.000109073
0.000105993
0.000103407
0.000362254
0.000106589
7.66075e-05
6.46409e-05
5.90324e-05
5.57781e-05
5.45736e-05
5.37053e-05
5.40354e-05
5.42234e-05
5.52993e-05
5.61878e-05
5.75687e-05
5.88956e-05
6.03704e-05
6.06272e-05
6.06262e-05
6.10656e-05
1.26056e-05
1.65695e-05
1.93226e-05
2.09564e-05
2.18894e-05
2.21303e-05
2.21769e-05
2.2021e-05
2.17221e-05
2.13887e-05
2.10524e-05
2.07294e-05
2.04296e-05
2.01596e-05
1.99131e-05
1.97011e-05
1.95121e-05
1.93486e-05
1.52635e-12
1.7177e-10
8.74334e-10
3.43382e-09
1.14099e-08
3.46036e-08
8.99985e-08
1.78191e-07
2.87674e-07
4.0287e-07
5.04789e-07
5.83386e-07
6.33883e-07
6.50104e-07
6.40409e-07
6.11343e-07
5.58531e-07
4.73375e-07
4.00504e-07
3.38969e-07
2.81413e-07
2.26094e-07
1.72955e-07
1.23749e-07
8.0259e-08
4.68978e-08
2.49354e-08
1.26408e-08
6.46485e-09
3.51479e-09
2.11931e-09
1.56804e-09
1.91655e-09
3.62985e-09
6.28984e-09
4.65446e-08
1.09706e-07
2.5051e-07
3.91173e-07
4.46479e-07
4.18414e-07
3.45009e-07
2.84005e-07
2.64853e-07
2.78027e-07
3.54157e-07
4.51986e-07
8.4657e-07
1.76809e-06
4.80991e-06
1.40085e-05
2.7802e-05
3.978e-05
4.60293e-05
5.02532e-05
4.95912e-05
4.9575e-05
4.77164e-05
4.37661e-05
3.81443e-05
3.71005e-05
3.94332e-05
3.29758e-05
3.13568e-05
3.26675e-05
3.31732e-05
3.37806e-05
3.43345e-05
3.49581e-05
3.54769e-05
3.60694e-05
3.65927e-05
3.71509e-05
3.7676e-05
3.82126e-05
3.87339e-05
3.92573e-05
3.97732e-05
4.02876e-05
4.07984e-05
4.13061e-05
4.18127e-05
4.23155e-05
4.28186e-05
4.33173e-05
4.38172e-05
4.43131e-05
4.48107e-05
4.53045e-05
4.57984e-05
4.6289e-05
4.67786e-05
4.72664e-05
4.77531e-05
4.82369e-05
4.87183e-05
4.91957e-05
4.96708e-05
5.01432e-05
5.06182e-05
5.1099e-05
5.15961e-05
5.20897e-05
5.25902e-05
5.30966e-05
5.36094e-05
5.41303e-05
5.46577e-05
5.51943e-05
5.57378e-05
5.62915e-05
5.68528e-05
5.74254e-05
5.80065e-05
5.86001e-05
5.92037e-05
5.98209e-05
6.04501e-05
6.10943e-05
6.17526e-05
6.2428e-05
6.31204e-05
6.38323e-05
6.45646e-05
6.53185e-05
6.60964e-05
6.68987e-05
6.77287e-05
6.85847e-05
6.94713e-05
7.04195e-05
7.14155e-05
7.24317e-05
7.35073e-05
7.46276e-05
7.58204e-05
7.70799e-05
7.8119e-05
7.78884e-05
7.7649e-05
7.73916e-05
7.71221e-05
7.68387e-05
7.6543e-05
7.6235e-05
7.59156e-05
7.55853e-05
7.52466e-05
7.48928e-05
7.45388e-05
7.41604e-05
7.37886e-05
7.33982e-05
7.30061e-05
7.26031e-05
7.21982e-05
7.17833e-05
7.13684e-05
7.09461e-05
7.05232e-05
7.00978e-05
6.96732e-05
6.92482e-05
6.88246e-05
6.8402e-05
6.79813e-05
6.75628e-05
6.7147e-05
6.67351e-05
6.63268e-05
6.59233e-05
6.55235e-05
6.51276e-05
6.47326e-05
6.43353e-05
6.39265e-05
6.34949e-05
6.30125e-05
6.24303e-05
6.08917e-05
7.12488e-12
1.14844e-09
1.52562e-08
8.10835e-08
3.44154e-07
1.16375e-06
2.64926e-06
4.79655e-06
7.42661e-06
1.04223e-05
1.3444e-05
1.6257e-05
1.86323e-05
2.03607e-05
2.14508e-05
2.17232e-05
2.13461e-05
2.05078e-05
1.8265e-05
1.51483e-05
1.16059e-05
8.49721e-06
5.96456e-06
3.99334e-06
2.51152e-06
1.54819e-06
9.45759e-07
5.86836e-07
3.64304e-07
2.39506e-07
1.7315e-07
1.46776e-07
1.62765e-07
2.63884e-07
2.55368e-07
2.88236e-06
6.58542e-06
1.39148e-05
1.99512e-05
2.2513e-05
2.15379e-05
1.97541e-05
1.70189e-05
1.55185e-05
1.56945e-05
1.57974e-05
1.78175e-05
2.36111e-05
3.39701e-05
4.41311e-05
5.53163e-05
6.51961e-05
7.4228e-05
8.24286e-05
9.27476e-05
0.000105183
0.000116721
0.000127952
0.00013924
0.00015354
0.00016761
0.00018273
0.000192895
0.000200171
0.000213372
0.000224453
0.00023565
0.000246094
0.00025635
0.000266243
0.0002758
0.000285143
0.000294213
0.000303118
0.000311824
0.000320396
0.000328823
0.000337139
0.000345346
0.000353458
0.000361481
0.000369422
0.000377285
0.000385075
0.000392791
0.000400439
0.000408017
0.000415528
0.000422969
0.000430337
0.000437627
0.000444831
0.000451939
0.00045894
0.000465814
0.000472541
0.000479083
0.000485395
0.000491401
0.000497014
0.000502113
0.000506579
0.000511115
0.000515428
0.000519668
0.000523763
0.000527745
0.000531597
0.000535326
0.000538927
0.0005424
0.000545743
0.000548958
0.000552043
0.000554997
0.000557821
0.000560514
0.000563075
0.000565506
0.000567803
0.000569967
0.000571993
0.000573879
0.000575623
0.000577222
0.000578674
0.000579978
0.000581129
0.000582125
0.000582958
0.000583619
0.000584143
0.000584497
0.000584715
0.000584692
0.000584607
0.0005845
0.000584509
0.000584514
0.000584397
0.000584122
0.000583692
0.000583109
0.000582375
0.000581489
0.000580454
0.000579294
0.000577933
0.000576761
0.00057496
0.000573501
0.00057153
0.000569685
0.000567598
0.000565528
0.000563222
0.000560937
0.000558482
0.000555993
0.000553407
0.000550778
0.000548083
0.00054535
0.000542567
0.000539748
0.000536888
0.000533997
0.000531072
0.000528124
0.000525152
0.000522163
0.000519147
0.000516104
0.000513008
0.000509796
0.000506395
0.000502668
0.000498317
0.000492641
0.000476882
1.78384e-11
3.07765e-09
5.84659e-08
3.53298e-07
9.7724e-07
2.77855e-06
5.90439e-06
1.03115e-05
1.58289e-05
2.21241e-05
2.88701e-05
3.54646e-05
4.14045e-05
4.63461e-05
5.01576e-05
5.2632e-05
5.39371e-05
5.42347e-05
5.26456e-05
4.9787e-05
4.51054e-05
3.92662e-05
3.22321e-05
2.52962e-05
1.89063e-05
1.34779e-05
9.10849e-06
6.05589e-06
3.79323e-06
2.51155e-06
1.75237e-06
1.39257e-06
1.1842e-06
1.8148e-06
3.03028e-06
1.49454e-05
3.22814e-05
5.15345e-05
6.25617e-05
6.26508e-05
5.25507e-05
4.16073e-05
3.89381e-05
4.39257e-05
5.04447e-05
5.86947e-05
7.06121e-05
8.20433e-05
9.41602e-05
0.000109225
0.0001266
0.000145894
0.000168063
0.000193134
0.000221946
0.000251817
0.000281472
0.000311397
0.000341012
0.000371203
0.00039911
0.000426985
0.000452276
0.000475931
0.000499862
0.000522572
0.000544228
0.000565127
0.000585344
0.000604973
0.000624062
0.000642735
0.000660998
0.000678947
0.000696587
0.000713976
0.000731123
0.000748062
0.0007648
0.000781356
0.000797735
0.000813946
0.000829994
0.00084588
0.000861606
0.000877169
0.000892567
0.000907796
0.000922847
0.000937705
0.000952358
0.000966786
0.000980968
0.00099488
0.00100849
0.00102176
0.00103465
0.00104712
0.00105912
0.00107062
0.00108163
0.00109229
0.00110276
0.00111292
0.00112284
0.00113247
0.00114183
0.00115092
0.00115972
0.00116824
0.00117648
0.00118444
0.00119211
0.00119949
0.00120659
0.00121341
0.00121995
0.0012262
0.00123217
0.00123786
0.00124326
0.00124837
0.00125318
0.00125769
0.00126189
0.00126579
0.00126937
0.00127264
0.00127558
0.00127819
0.00128047
0.00128242
0.00128404
0.00128535
0.0012863
0.00128696
0.00128744
0.00128784
0.00128791
0.00128766
0.00128705
0.00128609
0.00128478
0.00128313
0.00128115
0.00127884
0.00127622
0.00127329
0.00127024
0.00126656
0.00126296
0.00125877
0.00125453
0.00124993
0.0012452
0.00124013
0.00123495
0.00122951
0.00122394
0.0012182
0.00121234
0.00120635
0.00120027
0.0011941
0.00118785
0.00118151
0.00117511
0.00116864
0.00116213
0.00115558
0.00114899
0.00114235
0.00113566
0.00112884
0.00112181
0.00111439
0.00110628
0.00109674
0.00108394
0.0010554
6.10866e-11
1.03483e-08
1.69194e-07
7.51315e-07
2.29505e-06
6.41958e-06
1.28561e-05
2.15963e-05
3.19883e-05
4.29446e-05
5.3579e-05
6.34032e-05
7.17904e-05
7.82356e-05
8.29969e-05
8.60776e-05
8.73432e-05
8.71713e-05
8.56859e-05
8.2613e-05
7.81131e-05
7.27095e-05
6.54841e-05
5.69006e-05
4.73745e-05
3.78812e-05
2.90874e-05
2.18225e-05
1.62224e-05
1.17049e-05
8.95103e-06
6.53444e-06
6.71314e-06
9.76013e-06
2.1943e-05
4.48006e-05
6.48757e-05
7.79497e-05
7.62333e-05
7.2666e-05
7.16285e-05
7.39806e-05
8.02835e-05
8.99941e-05
0.00010383
0.000114719
0.000130667
0.000153559
0.000176562
0.000206971
0.000239732
0.00027686
0.000316819
0.000359411
0.000403642
0.000447717
0.000491173
0.000534077
0.000575705
0.000616091
0.000654175
0.000691887
0.00072716
0.000761164
0.000794051
0.000825702
0.000856298
0.000886025
0.000914965
0.000943228
0.000970893
0.000998045
0.00102473
0.00105102
0.00107693
0.00110251
0.00112778
0.00115276
0.00117746
0.00120189
0.00122607
0.00124998
0.00127364
0.00129705
0.0013202
0.00134308
0.0013657
0.00138803
0.00141007
0.0014318
0.00145319
0.00147422
0.00149487
0.00151512
0.00153493
0.00155427
0.00157312
0.00159146
0.00160929
0.0016266
0.00164345
0.00165989
0.00167595
0.00169159
0.00170683
0.00172165
0.00173605
0.00175003
0.00176358
0.00177669
0.00178937
0.00180162
0.00181344
0.00182482
0.00183578
0.00184631
0.00185641
0.00186608
0.00187533
0.00188416
0.00189255
0.00190051
0.00190802
0.0019151
0.00192172
0.00192788
0.00193359
0.00193883
0.00194359
0.00194788
0.00195168
0.001955
0.00195783
0.0019602
0.00196205
0.00196341
0.00196451
0.00196522
0.00196542
0.00196512
0.00196431
0.00196298
0.00196115
0.00195882
0.00195601
0.00195271
0.00194896
0.00194478
0.00194022
0.00193509
0.00192971
0.00192378
0.00191756
0.00191092
0.00190397
0.00189663
0.00188904
0.00188112
0.00187296
0.00186457
0.00185598
0.00184721
0.00183829
0.00182923
0.00182004
0.00181073
0.00180131
0.0017918
0.00178221
0.00177256
0.00176285
0.00175309
0.00174324
0.00173323
0.00172293
0.00171215
0.00170047
0.00168682
0.00166884
0.00163501
2.03949e-10
3.10916e-08
3.74796e-07
1.76023e-06
6.15229e-06
1.50311e-05
2.81756e-05
4.39947e-05
6.05832e-05
7.63088e-05
8.98815e-05
0.00010044
0.000108275
0.000113919
0.000117211
0.000118692
0.000118576
0.000117046
0.000114304
0.000110432
0.000105272
9.92993e-05
9.22664e-05
8.38818e-05
7.40996e-05
6.33121e-05
5.22067e-05
4.21066e-05
3.36806e-05
2.71285e-05
2.10085e-05
1.97183e-05
2.28687e-05
3.72958e-05
6.22302e-05
7.98553e-05
8.89102e-05
9.29464e-05
9.54429e-05
9.9529e-05
0.000106998
0.000118705
0.000132318
0.000143599
0.000161633
0.000188995
0.000217738
0.000254771
0.000294322
0.000340472
0.00038827
0.000439591
0.000492205
0.000545878
0.000599517
0.000652343
0.000704126
0.000754788
0.000803517
0.000851216
0.000897012
0.00094163
0.000984367
0.00102578
0.00106596
0.00110498
0.00114298
0.00118008
0.00121639
0.00125198
0.00128695
0.00132135
0.00135524
0.00138867
0.00142166
0.00145425
0.00148645
0.00151828
0.00154974
0.00158085
0.0016116
0.00164201
0.00167206
0.00170175
0.00173107
0.00176003
0.00178861
0.00181679
0.00184457
0.00187193
0.00189884
0.00192528
0.00195123
0.00197667
0.00200157
0.00202593
0.00204973
0.00207296
0.00209563
0.00211776
0.00213936
0.00216045
0.00218103
0.00220107
0.00222058
0.00223956
0.00225799
0.00227587
0.0022932
0.00230997
0.00232618
0.00234184
0.00235694
0.00237149
0.00238549
0.00239895
0.00241185
0.00242422
0.00243605
0.00244733
0.00245806
0.00246825
0.00247788
0.00248695
0.00249546
0.0025034
0.00251077
0.00251756
0.00252377
0.0025294
0.00253444
0.00253887
0.00254266
0.00254593
0.00254851
0.0025505
0.00255214
0.00255316
0.00255357
0.00255335
0.00255251
0.00255106
0.00254899
0.00254631
0.00254304
0.00253919
0.00253477
0.00252982
0.00252435
0.0025183
0.00251181
0.00250477
0.00249728
0.00248932
0.00248092
0.00247209
0.00246288
0.00245329
0.00244339
0.00243318
0.00242271
0.00241201
0.00240109
0.00238999
0.00237871
0.00236726
0.00235566
0.00234393
0.0023321
0.00232017
0.00230815
0.00229604
0.00228381
0.00227141
0.00225871
0.0022455
0.00223138
0.00221522
0.00219438
0.00216023
6.3839e-10
7.59865e-08
9.15806e-07
4.66629e-06
1.56233e-05
3.34569e-05
5.51241e-05
7.74697e-05
9.72108e-05
0.000112946
0.00012469
0.000133644
0.000139381
0.000142596
0.000143839
0.000143503
0.000141857
0.000139086
0.000135348
0.000130677
0.000124914
0.000118579
0.000111245
0.00010272
9.30971e-05
7.94222e-05
6.43872e-05
5.02823e-05
3.80835e-05
3.0968e-05
3.03329e-05
3.83417e-05
5.76254e-05
8.07663e-05
9.80141e-05
0.000108687
0.000115133
0.00012086
0.000129591
0.000143579
0.00015693
0.00016844
0.000188402
0.000215668
0.000247654
0.000287794
0.000331699
0.000382222
0.000435056
0.000491795
0.000549584
0.000609086
0.000668872
0.000728643
0.000787737
0.000845828
0.000902597
0.000957928
0.00101212
0.00106496
0.00111619
0.00116597
0.00121431
0.00126141
0.00130734
0.0013522
0.0013961
0.00143912
0.00148135
0.00152288
0.00156375
0.00160403
0.00164376
0.00168297
0.00172169
0.00175993
0.00179771
0.00183503
0.0018719
0.00190833
0.0019443
0.00197982
0.00201488
0.00204948
0.00208361
0.00211727
0.00215043
0.0021831
0.00221527
0.00224691
0.00227802
0.00230857
0.00233855
0.00236793
0.0023967
0.00242486
0.0024524
0.00247932
0.00250563
0.00253132
0.00255641
0.00258088
0.00260475
0.00262798
0.00265059
0.00267257
0.0026939
0.00271459
0.00273463
0.00275402
0.00277276
0.00279085
0.0028083
0.00282509
0.00284124
0.00285676
0.00287164
0.00288589
0.00289951
0.00291251
0.00292487
0.0029366
0.00294769
0.00295815
0.00296797
0.00297714
0.00298567
0.00299355
0.00300078
0.00300738
0.00301333
0.00301851
0.00302307
0.00302701
0.00303017
0.00303271
0.00303476
0.00303612
0.0030368
0.00303678
0.00303609
0.00303472
0.00303268
0.00302998
0.00302662
0.00302262
0.00301799
0.00301277
0.00300696
0.00300054
0.00299358
0.00298605
0.00297799
0.00296939
0.0029603
0.00295072
0.00294069
0.00293023
0.00291939
0.0029082
0.00289669
0.00288489
0.00287282
0.00286051
0.00284798
0.00283523
0.00282229
0.00280918
0.00279592
0.00278253
0.00276903
0.00275541
0.00274166
0.00272775
0.00271355
0.00269889
0.00268341
0.00266613
0.00264457
0.00261223
2.00511e-09
1.88683e-07
2.39293e-06
1.27791e-05
3.41936e-05
6.17925e-05
8.89962e-05
0.000111422
0.000128488
0.000141179
0.000150475
0.000156327
0.000159535
0.000160776
0.000160496
0.00015899
0.00015645
0.000153001
0.000148639
0.000143353
0.000137089
0.00013002
0.000121664
0.000108726
9.22862e-05
7.78918e-05
6.49984e-05
5.44349e-05
4.94629e-05
5.36519e-05
6.59937e-05
8.79875e-05
0.000109776
0.000124176
0.000134591
0.000142722
0.000152141
0.000166509
0.000179546
0.000190198
0.000209705
0.000236003
0.000268384
0.000308056
0.000353553
0.000405403
0.000460754
0.000519961
0.000580773
0.000643486
0.000706765
0.000770571
0.00083417
0.000897271
0.000959299
0.00102019
0.00108037
0.00113928
0.00119685
0.00125308
0.00130801
0.00136164
0.00141404
0.00146531
0.00151553
0.00156476
0.00161309
0.00166059
0.00170733
0.00175336
0.00179874
0.00184351
0.0018877
0.00193132
0.00197441
0.00201695
0.00205896
0.00210043
0.00214137
0.00218177
0.00222163
0.00226093
0.00229968
0.00233787
0.00237549
0.00241254
0.00244901
0.00248488
0.00252017
0.00255486
0.00258893
0.00262238
0.00265519
0.00268735
0.00271884
0.00274967
0.00277982
0.00280929
0.00283807
0.00286615
0.00289355
0.00292027
0.0029463
0.00297164
0.00299629
0.00302023
0.00304347
0.00306599
0.0030878
0.0031089
0.00312928
0.00314895
0.00316792
0.00318619
0.00320377
0.00322065
0.00323683
0.00325232
0.00326712
0.00328123
0.00329466
0.0033074
0.00331945
0.00333081
0.00334148
0.00335147
0.00336076
0.00336937
0.00337728
0.00338455
0.0033911
0.00339686
0.00340198
0.00340641
0.00341002
0.00341303
0.00341543
0.00341711
0.00341808
0.00341834
0.00341789
0.00341674
0.0034149
0.00341238
0.00340921
0.00340542
0.00340098
0.0033959
0.00339021
0.0033839
0.003377
0.0033695
0.00336144
0.0033528
0.00334363
0.00333393
0.00332373
0.00331307
0.00330199
0.0032905
0.00327864
0.00326644
0.00325394
0.00324114
0.00322806
0.00321472
0.00320115
0.00318735
0.00317337
0.00315922
0.00314492
0.00313049
0.00311591
0.00310117
0.00308618
0.00307081
0.00305476
0.00303724
0.00301632
0.00298687
5.97658e-09
4.92572e-07
6.33458e-06
2.75985e-05
5.96171e-05
9.28459e-05
0.000120772
0.000141868
0.00015667
0.000166129
0.000171054
0.000173143
0.000173535
0.000172581
0.000170602
0.000167787
0.000164157
0.000159596
0.000154115
0.000147754
0.000140709
0.000132599
0.000118371
0.000100817
8.55101e-05
7.34779e-05
6.71089e-05
6.93746e-05
7.52296e-05
9.22505e-05
0.000117455
0.000141867
0.000158367
0.00016855
0.000179259
0.000193066
0.000199546
0.000209435
0.00022712
0.000251092
0.000282005
0.000319716
0.00036381
0.000414235
0.000469639
0.000529178
0.000591093
0.000655028
0.000719941
0.00078565
0.000851525
0.000917336
0.000982613
0.00104694
0.00111076
0.00117375
0.00123562
0.00129633
0.00135589
0.00141426
0.0014715
0.00152761
0.00158265
0.00163668
0.00168975
0.00174193
0.00179327
0.00184384
0.00189368
0.00194284
0.00199136
0.00203926
0.00208658
0.00213331
0.00217946
0.00222503
0.00227001
0.00231439
0.00235816
0.00240131
0.00244384
0.00248573
0.00252698
0.00256758
0.00260754
0.00264684
0.00268548
0.00272346
0.00276077
0.00279743
0.00283341
0.00286873
0.00290336
0.0029373
0.00297055
0.00300309
0.00303492
0.00306604
0.0030964
0.00312605
0.00315499
0.00318322
0.00321072
0.00323751
0.00326356
0.00328887
0.00331344
0.00333726
0.00336033
0.00338264
0.00340419
0.00342499
0.00344503
0.00346432
0.00348286
0.00350065
0.00351771
0.00353403
0.00354963
0.0035645
0.00357864
0.00359207
0.00360477
0.00361676
0.00362804
0.00363861
0.00364846
0.00365761
0.00366606
0.00367388
0.00368092
0.00368722
0.00369284
0.00369777
0.00370186
0.00370538
0.00370822
0.00371036
0.00371179
0.0037125
0.00371252
0.00371183
0.00371046
0.0037084
0.00370568
0.00370228
0.00369822
0.00369353
0.00368819
0.00368223
0.00367565
0.00366847
0.00366068
0.00365231
0.00364337
0.00363387
0.00362385
0.00361333
0.00360234
0.00359092
0.00357909
0.00356687
0.0035543
0.00354139
0.00352816
0.00351462
0.0035008
0.00348671
0.0034724
0.00345787
0.00344316
0.00342829
0.00341326
0.00339807
0.00338265
0.00336693
0.0033507
0.00333342
0.00331356
0.00328744
1.55814e-08
1.2133e-06
1.43714e-05
4.71355e-05
8.6458e-05
0.000120376
0.000146041
0.00016415
0.000175785
0.000182157
0.000184651
0.000184369
0.000182194
0.000178875
0.000174856
0.000170295
0.000165141
0.000159432
0.000153089
0.00014597
0.000138271
0.000127024
0.000112124
0.000101557
9.65972e-05
9.3072e-05
9.17807e-05
0.000102422
0.000121619
0.00014323
0.00016467
0.00018315
0.000197057
0.000206351
0.000215195
0.000225542
0.000241414
0.000262489
0.000290696
0.000325414
0.000366646
0.000413955
0.000466785
0.000524416
0.000585548
0.000649137
0.00071417
0.000780223
0.00084677
0.000913548
0.000980227
0.00104622
0.00111174
0.00117697
0.00124124
0.00130459
0.00136695
0.00142827
0.00148856
0.00154781
0.00160604
0.00166329
0.00171958
0.00177497
0.00182951
0.00188325
0.00193623
0.00198848
0.00204007
0.00209101
0.00214136
0.00219113
0.00224033
0.00228896
0.00233702
0.00238446
0.00243129
0.00247748
0.00252301
0.00256787
0.00261204
0.0026555
0.00269826
0.00274031
0.00278165
0.00282229
0.00286225
0.00290151
0.00294005
0.00297786
0.00301495
0.00305132
0.00308697
0.0031219
0.0031561
0.00318957
0.00322232
0.00325434
0.00328565
0.00331624
0.00334611
0.00337525
0.00340366
0.00343133
0.00345824
0.00348441
0.00350981
0.00353444
0.00355829
0.00358137
0.00360367
0.00362518
0.00364591
0.00366586
0.00368503
0.00370344
0.00372107
0.00373794
0.00375406
0.00376943
0.00378406
0.00379795
0.0038111
0.00382353
0.00383523
0.00384622
0.00385649
0.00386606
0.00387494
0.0038832
0.00389067
0.00389744
0.00390354
0.00390894
0.00391355
0.00391759
0.00392095
0.00392361
0.00392559
0.00392689
0.00392751
0.00392745
0.00392672
0.00392533
0.00392328
0.00392058
0.00391723
0.00391325
0.00390864
0.0039034
0.00389755
0.00389109
0.00388401
0.00387634
0.00386808
0.00385925
0.00384987
0.00383997
0.00382958
0.00381872
0.00380741
0.00379569
0.00378356
0.00377105
0.00375818
0.00374495
0.00373139
0.00371753
0.00370338
0.00368899
0.00367438
0.00365957
0.00364457
0.0036294
0.00361403
0.00359841
0.0035824
0.00356551
0.00354656
0.00352322
3.49182e-08
2.80046e-06
2.64194e-05
6.98356e-05
0.000112893
0.000146821
0.000170053
0.000184561
0.000192308
0.000194558
0.000193175
0.000189512
0.000184504
0.000178736
0.000172566
0.000165924
0.000158923
0.000151457
0.000143423
0.000135036
0.000126
0.000116677
0.000108434
0.000103836
0.00010564
0.00011473
0.000129666
0.000147293
0.000166204
0.000184507
0.000200541
0.000212779
0.000224366
0.000236885
0.000252209
0.000271159
0.000296287
0.000327486
0.000365112
0.000408559
0.000457491
0.000511355
0.000569454
0.000630883
0.000694575
0.0007597
0.000825641
0.000892048
0.000958599
0.00102489
0.00109063
0.00115634
0.0012214
0.00128573
0.0013492
0.00141176
0.00147339
0.00153407
0.00159381
0.00165261
0.00171049
0.00176748
0.00182363
0.00187899
0.00193361
0.00198754
0.00204081
0.00209344
0.00214545
0.00219693
0.00224788
0.00229833
0.00234828
0.00239775
0.00244675
0.00249535
0.00254341
0.00259081
0.00263749
0.00268343
0.00272861
0.00277302
0.00281663
0.00285945
0.00290147
0.00294269
0.0029831
0.00302271
0.00306157
0.0030997
0.00313712
0.00317382
0.00320982
0.00324511
0.0032797
0.0033136
0.0033468
0.00337931
0.00341113
0.00344224
0.00347265
0.00350233
0.0035313
0.00355952
0.00358701
0.00361374
0.00363971
0.00366492
0.00368934
0.00371298
0.00373583
0.00375789
0.00377916
0.00379963
0.0038193
0.00383819
0.00385629
0.00387362
0.00389017
0.00390597
0.003921
0.00393528
0.00394883
0.00396164
0.00397372
0.00398509
0.00399576
0.00400572
0.00401505
0.0040237
0.00403163
0.00403889
0.00404548
0.0040514
0.00405661
0.00406122
0.00406517
0.00406846
0.0040711
0.00407309
0.00407444
0.00407515
0.00407522
0.00407465
0.00407346
0.00407164
0.0040692
0.00406614
0.00406247
0.00405819
0.00405329
0.00404779
0.00404168
0.00403497
0.00402765
0.00401976
0.00401131
0.00400232
0.00399282
0.00398281
0.00397234
0.00396141
0.00395004
0.00393825
0.00392605
0.00391345
0.00390047
0.00388715
0.0038735
0.00385956
0.00384535
0.0038309
0.00381624
0.00380138
0.00378633
0.00377107
0.00375551
0.00373931
0.00372147
0.00370117
6.71143e-08
5.78569e-06
3.98404e-05
8.93509e-05
0.000134109
0.000167581
0.000189157
0.000200263
0.000203861
0.000202448
0.000197821
0.000191259
0.000183627
0.000175231
0.000166536
0.00015782
0.000148951
0.000141051
0.00013394
0.000127932
0.000123542
0.000121971
0.000124275
0.000130781
0.000141244
0.000154901
0.000170522
0.000186761
0.000202402
0.000216079
0.000229036
0.000243414
0.000259057
0.000277401
0.000300123
0.000328002
0.000361752
0.00040104
0.000445614
0.000494942
0.000548583
0.000605974
0.000666409
0.000729065
0.000793134
0.000858004
0.000923246
0.00098859
0.00105345
0.00111809
0.00118251
0.00124629
0.00130932
0.00137152
0.00143283
0.00149323
0.00155274
0.00161136
0.00166911
0.00172603
0.00178213
0.00183737
0.00189192
0.00194582
0.00199913
0.00205191
0.00210425
0.00215632
0.00220819
0.00225965
0.00231067
0.00236126
0.0024114
0.0024611
0.00251033
0.00255899
0.00260706
0.00265451
0.00270123
0.00274725
0.00279253
0.00283703
0.00288074
0.00292363
0.00296573
0.00300702
0.00304754
0.00308732
0.00312635
0.00316464
0.00320222
0.00323909
0.00327527
0.00331076
0.00334557
0.0033797
0.00341317
0.00344597
0.00347809
0.00350955
0.00354032
0.0035704
0.00359979
0.00362847
0.00365643
0.00368366
0.00371015
0.00373589
0.00376086
0.00378506
0.00380847
0.00383108
0.0038529
0.00387392
0.00389414
0.00391357
0.00393219
0.00395003
0.00396708
0.00398336
0.00399887
0.00401362
0.00402762
0.00404088
0.00405342
0.00406524
0.00407637
0.00408681
0.00409662
0.00410575
0.00411422
0.00412203
0.00412921
0.00413574
0.00414162
0.00414691
0.00415155
0.00415556
0.00415897
0.00416177
0.00416396
0.00416555
0.00416655
0.00416694
0.00416674
0.00416595
0.00416456
0.00416259
0.00416002
0.00415686
0.00415311
0.00414875
0.00414379
0.00413822
0.00413205
0.0041253
0.00411797
0.0041101
0.00410169
0.00409276
0.00408333
0.00407342
0.00406304
0.0040522
0.0040409
0.00402916
0.004017
0.00400445
0.00399153
0.00397826
0.00396469
0.00395084
0.00393673
0.0039224
0.00390786
0.00389311
0.00387814
0.00386269
0.00384586
0.00382821
1.09101e-07
1.02e-05
5.5234e-05
0.000111514
0.000157491
0.000188417
0.000205873
0.000213109
0.000213311
0.000208946
0.000201829
0.000193132
0.000183647
0.000174488
0.000165494
0.000157634
0.000150698
0.00014563
0.000142685
0.000141992
0.000143899
0.000148668
0.000156279
0.000166415
0.00017854
0.00019204
0.000205991
0.000219307
0.00023219
0.000246973
0.000263642
0.000281806
0.000303082
0.000328492
0.000358718
0.000393924