/*--------------------------------*- C++ -*----------------------------------*\
  =========                 |
  \\      /  F ield         | OpenFOAM: The Open Source CFD Toolbox
   \\    /   O peration     | Website:  https://openfoam.org
    \\  /    A nd           | Version:  13
     \\/     M anipulation  |
\*---------------------------------------------------------------------------*/
FoamFile
{
    format      ascii;
    class       volScalarField;
    location    "600";
    object      omega;
}
// * * * * * * * * * * * * * * * * * * * * * * * * * * * * * * * * * * * * * //

dimensions      [0 0 -1 0 0 0 0];

internalField   nonuniform List<scalar> 
12225
(
31477.7
31477.7
46578.2
40565.1
47422.9
41892.2
31477.7
47647.2
42664.8
31477.7
31477.7
40753.6
45999.7
40839.5
37826.3
31477.7
31477.7
31477.7
7159.58
16542.3
18428.6
17789.1
19001.3
18426.8
17791.9
19817.8
20011
19130.5
18952.4
19647.7
20397.3
20094
19774.6
19307.7
19549.8
19471.2
2686.93
3866.28
5271.48
9421.91
8698.95
8536.83
8678.02
9983.33
10358.5
10267.6
10007.7
9745.6
9479.61
9131.61
9013.79
8935.06
8812.46
8797.96
25624.2
16559.2
13646.2
10942.4
9808.02
9355.45
8995.18
8549.06
7921.71
7155.46
6492.87
6101.78
5683.21
5309.28
5104.78
4847.35
4755.74
4758.08
39586.1
29826.4
24897
15648.5
12813.6
10599.7
8752.35
7635.22
6611.69
5889.32
5312.9
4924.58
4654.22
4389.58
4247.55
3963.2
3830.74
3808.79
18722.7
14641.9
12880.6
8692.81
5642.8
5418.61
4919.96
4104.4
3778.77
3574.24
3195.83
2910.28
2681.59
2562.78
2524.07
2477.13
2480.4
2414.28
8117.23
5207.05
4934.82
4313.7
2979.59
2070.78
2155.53
2080.05
2014.73
1778.74
1750.71
1716.98
1680.38
1648.88
1625.07
1601.59
1580.44
1565.98
3477.59
3196.9
1965.16
1289.46
1016.45
886.287
891.599
911.701
923.503
932.631
935.258
944.845
960.826
972.464
983.852
986.375
987.24
993.436
813.81
1342.99
1025.98
752.879
623.922
576.799
580.035
598.092
608.132
618.386
629.744
641.13
652.827
663.375
673.109
681.02
688.444
695.246
449.679
630.737
642.257
614.479
538.378
493.308
481.741
483.492
487.834
494.168
500.794
507.541
514.23
520.519
526.915
532.672
538.081
545.181
440.922
444.384
475.371
480.128
475.367
457.554
446.555
443.821
443.898
445.729
447.856
450.54
453.175
456.191
459.14
462.392
464.995
469.427
439.367
436.634
437.533
437.384
436.456
434.047
431.835
430.466
429.982
429.723
429.714
430.066
430.535
431.446
432.359
433.512
434.618
436.302
438.959
436.657
434.657
432.862
431.103
429.406
427.777
426.385
425.13
424.139
423.19
422.492
421.835
421.205
420.818
420.598
420.254
420.559
438.976
436.756
434.625
432.633
430.713
428.93
427.209
425.639
424.12
422.76
421.428
420.246
419.08
418.092
417.075
416.295
415.418
414.813
438.995
436.774
434.653
432.652
430.736
428.933
427.201
425.577
424.013
422.551
421.138
419.82
418.541
417.358
416.206
415.149
414.117
413.174
439
436.774
434.656
432.65
430.739
428.929
427.201
425.564
423.999
422.516
421.096
419.75
418.459
417.237
416.063
414.952
413.884
412.874
439
436.772
434.655
432.645
430.735
428.92
427.193
425.55
423.986
422.496
421.076
419.723
418.432
417.201
416.027
414.905
413.835
412.813
439
436.769
434.65
432.638
430.726
428.907
427.179
425.533
423.968
422.475
421.054
419.698
418.406
417.173
415.997
414.873
413.802
412.776
439.001
436.77
434.653
432.641
430.73
428.911
427.183
425.537
423.971
422.478
421.057
419.7
418.408
417.173
415.997
414.872
413.801
412.775
439.003
436.77
434.657
432.642
430.735
428.915
427.191
425.543
423.98
422.486
421.067
419.709
418.419
417.183
416.008
414.883
413.812
412.786
439.009
436.763
434.667
432.638
430.747
428.916
427.203
425.549
423.993
422.498
421.082
419.727
418.437
417.207
416.031
414.914
413.841
412.824
439.019
436.753
434.686
432.625
430.777
428.905
427.239
425.55
424.036
422.52
421.138
419.78
418.525
417.303
416.171
415.066
414.061
413.034
439.021
436.76
434.686
432.64
430.805
428.94
427.341
425.664
424.267
422.793
421.577
420.324
419.277
418.235
417.337
416.478
415.733
414.973
439.062
436.725
434.698
432.753
431.089
429.55
428.374
427.172
426.444
425.647
425.361
425.01
425.011
425.105
425.379
425.649
426.214
426.548
439.175
436.676
435.309
434.46
434.785
435.81
437.385
439.175
442.091
444.764
448.553
451.904
456.26
459.918
464.517
468.096
472.682
476.08
439.563
441.655
444.046
451.9
464.2
476.204
491.477
505.203
521.569
535.771
552.086
566.155
581.936
595.057
610.267
621.596
636.372
645.78
450.118
481.771
510.494
565.557
630.596
688.579
754.554
808.441
868.665
915.557
968.533
1009.88
1056.3
1092.89
1134.65
1165.89
1205.1
1230.51
521.042
785.573
987.766
1290.26
1589.42
1842.06
2100.81
2292.68
2491.86
2624.85
2776.85
2873.47
2991.66
3073.57
3170.18
3247.54
3331.69
3401.41
1090.6
3986.82
5851.03
7201.42
8207.19
8903.66
9365.53
9680.04
9851.35
9953.63
9977.76
9966.2
9945.76
9908.13
9878.37
9846.16
9831.91
9823.49
18117.5
23292.2
25280.7
26298.7
26759.4
26741.4
26634.2
26384.1
26072.6
25743.9
25422.9
25118.9
24838.9
24584.7
24353.1
24149.1
23964.7
23802.2
11463.2
2514.24
2516.41
2518.61
2520.83
2523.07
2525.32
2527.6
2529.9
2532.22
2534.57
2536.93
2539.31
2541.72
2544.15
2546.6
2549.08
2551.57
2554.09
2556.64
2559.2
2561.79
2564.41
2567.05
2569.71
2572.4
2575.12
2577.86
2580.62
2583.41
2586.23
2589.08
2591.95
2594.85
2597.77
2600.73
2603.71
2606.72
2609.76
2612.82
2615.92
2619.05
2622.2
2625.39
2628.61
2631.86
2635.14
2638.45
2641.79
2645.17
2648.58
2652.02
2655.5
2659.01
2662.55
2666.13
2669.74
2673.39
2677.08
2680.8
3230.92
2688.35
2692.19
3291.83
3379.3
3472.02
3554.61
3628.41
3708.28
3777.92
3850.92
3918.41
3986.42
4051.51
4116.01
4178.69
4240.44
4300.9
4360.31
4418.7
4476
4532.43
4587.74
4642.28
4695.66
4748.28
4799.73
4850.4
4899.91
4948.55
4996.12
5042.61
5087.92
5132.07
5174.93
5216.55
5256.77
5295.7
5333.23
5369.64
5405.11
5440.19
5474.01
5507.02
5539.12
5570.31
5600.65
5630.01
5658.53
5686.05
5712.73
5738.38
5763.18
5786.96
5809.86
5831.75
5852.73
5872.69
5891.73
5909.77
5926.83
5942.86
5957.86
5971.85
5984.76
5996.67
6007.46
6017.24
6025.83
6033.38
6040.84
6046.7
6052.14
6055.21
6058.43
6060.58
6062.27
6062.45
6060.75
6058.45
6054.86
6050.43
6044.99
6038.71
6031.55
6023.58
6014.83
6005.38
5995.33
5984.41
5973.15
5960.92
5948.43
5935.28
5921.73
5907.7
5893.41
5878.74
5863.91
5848.88
5833.88
5818.88
5803.99
5789.22
5774.61
5760.19
5745.99
5732.08
5718.49
5705.29
5692.46
5680.04
5667.9
5655.95
5643.69
5630.56
5615.35
5595.72
5566.96
5453.97
11463.2
1990.24
999.614
813.856
693.495
618.455
624.463
621.799
608.99
585.941
561.659
537.411
515.878
498.509
486.629
478.882
479.027
481.327
508.663
561.09
646.902
749.074
859.523
968.712
1065.86
1141.25
1180.49
1171.33
1134.86
1044.58
920.085
769.773
639.722
560.238
494.668
456.514
448.64
454.501
474.37
505.554
537.962
570.117
650.047
768.667
939.689
1221.18
1538.5
1778.57
1932.6
2021.83
2054.82
2057.53
2021.87
1980.25
1917.64
1851
1800.99
1766.1
1733.97
1683.82
1654.39
1615.67
1619.14
1652.88
1640.45
1639.67
1639.38
1641.87
1645.5
1649.85
1655.79
1661.96
1669.11
1676.45
1684.3
1692.28
1700.5
1708.77
1717.12
1725.47
1733.79
1742.06
1750.23
1758.3
1766.22
1774.01
1781.61
1789.04
1796.27
1803.29
1810.07
1816.62
1822.95
1829.07
1835.02
1840.83
1846.6
1852.43
1858.56
1865.24
1872.85
1881.84
1890.03
1898.34
1906.3
1914.14
1921.74
1929.15
1936.34
1943.33
1950.1
1956.66
1962.99
1969.11
1975
1980.68
1986.12
1991.33
1996.31
2001.05
2005.54
2009.8
2013.83
2017.62
2021.17
2024.5
2027.59
2030.46
2033.11
2035.58
2037.91
2039.95
2041.82
2043.42
2044.94
2046.2
2047.11
2047.29
2046.92
2046.12
2045.09
2043.85
2042.41
2040.78
2038.96
2037
2034.8
2032.69
2029.31
2027.46
2023.89
2021.49
2018.15
2015.11
2011.54
2008.33
2004.63
2001.14
1997.42
1993.75
1990.01
1986.29
1982.55
1978.83
1975.12
1971.45
1967.8
1964.22
1960.69
1957.25
1953.89
1950.64
1947.5
1944.49
1941.72
1939.22
1937.06
1935.76
1934.3
1943.23
11463.2
1998.26
801.246
624.552
664.957
671.647
645.388
590.849
530.586
474.571
424.671
383.984
351.88
326.634
307.163
292.124
281.712
273.471
271.662
274.087
285.039
303.914
336.664
380.766
436.295
496.77
558.94
605.839
638.537
634.909
618.134
571.539
510.109
439.074
386.672
372.987
382.257
403.621
434.264
496.108
595.793
732.654
921.752
1102.74
1255.47
1387.21
1491.49
1537.66
1543.19
1510.12
1458.73
1401.93
1343.87
1291.98
1241.28
1200.43
1170.07
1145.57
1126.6
1109.25
1100.08
1090.76
1087.58
1087.6
1086
1085.95
1087.34
1089.36
1092.03
1095.15
1098.71
1102.51
1106.6
1110.81
1115.19
1119.64
1124.16
1128.71
1133.28
1137.85
1142.4
1146.93
1151.41
1155.85
1160.24
1164.56
1168.82
1173.01
1177.13
1181.18
1185.17
1189.09
1192.97
1196.82
1200.67
1204.54
1208.47
1212.5
1216.68
1221.03
1225.55
1230.07
1234.41
1238.69
1242.84
1246.88
1250.8
1254.61
1258.29
1261.85
1265.29
1268.6
1271.78
1274.83
1277.74
1280.52
1283.16
1285.67
1288.03
1290.25
1292.32
1294.26
1296.05
1297.71
1299.23
1300.6
1301.84
1302.94
1303.92
1304.76
1305.49
1306.07
1306.52
1306.84
1307.03
1307.05
1306.86
1306.43
1305.81
1305.03
1304.14
1303.13
1302
1300.77
1299.44
1298.01
1296.47
1294.84
1292.95
1291.29
1289.22
1287.37
1285.24
1283.15
1280.89
1278.68
1276.32
1273.98
1271.57
1269.14
1266.67
1264.19
1261.69
1259.19
1256.68
1254.17
1251.67
1249.18
1246.72
1244.28
1241.89
1239.56
1237.31
1235.19
1233.27
1231.66
1230.5
1230.42
1231.73
1241.78
11463.2
2026.04
979.74
948.909
889.741
765.495
650.744
544.696
460.637
398.211
351.22
314.315
285.897
264.224
247.682
235.06
225.514
218.45
213.589
211.735
212.708
215.545
223.645
237.6
259.058
287.455
322.53
357.832
390.612
413.897
421.856
416.008
394.592
383.912
413.404
494.324
563.255
616.607
680.413
769.997
897.081
1023.35
1107.91
1177.73
1238.09
1267.73
1255.9
1201.28
1166.5
1111.36
1066.08
1023.07
987.25
956.986
931.615
912.227
897.618
886.168
877.905
871.923
868.963
866.019
865.475
865.786
866.663
868.24
870.349
872.813
875.594
878.611
881.827
885.185
888.666
892.231
895.867
899.549
903.265
907.002
910.748
914.495
918.234
921.958
925.662
929.342
932.994
936.615
940.205
943.764
947.292
950.789
954.257
957.703
961.134
964.562
967.993
971.437
974.903
978.393
981.906
985.429
988.932
992.362
995.697
998.955
1002.12
1005.19
1008.17
1011.05
1013.83
1016.51
1019.08
1021.55
1023.91
1026.16
1028.31
1030.34
1032.25
1034.05
1035.73
1037.29
1038.73
1040.06
1041.27
1042.36
1043.34
1044.2
1044.94
1045.57
1046.09
1046.48
1046.77
1046.95
1047.01
1046.95
1046.77
1046.45
1045.99
1045.38
1044.64
1043.79
1042.83
1041.78
1040.63
1039.39
1038.06
1036.65
1035.14
1033.55
1031.84
1030.14
1028.28
1026.43
1024.47
1022.47
1020.4
1018.3
1016.13
1013.94
1011.7
1009.43
1007.13
1004.81
1002.46
1000.1
997.735
995.362
992.986
990.613
988.249
985.903
983.585
981.309
979.104
977.008
975.082
973.423
972.172
971.845
972.852
978.987
11463.2
2255.64
1422.06
1169.73
934.53
725.457
559.91
448.278
372.439
319.474
282.003
255.542
235.992
221.009
209.238
200.005
192.894
187.665
184.071
182.095
182.084
183.398
186.658
192.903
203.268
218.555
239.357
263.125
287.801
308.996
323.215
339.051
393.952
484.779
580.437
649.029
714.677
787.373
860.302
926.387
983.62
1033.41
1071.51
1086.08
1070.62
1021.16
989.538
944.58
910.253
873.335
845.491
820.532
800.782
784.644
772.011
762.603
755.768
750.882
748.171
746.381
746
746.209
747.433
749.193
751.371
753.916
756.743
759.783
762.999
766.352
769.817
773.367
776.987
780.66
784.374
788.118
791.882
795.658
799.44
803.221
806.995
810.758
814.507
818.239
821.951
825.641
829.31
832.958
836.583
840.185
843.763
847.322
850.865
854.395
857.912
861.417
864.905
868.372
871.805
875.19
878.515
881.763
884.928
888.012
891.007
893.911
896.721
899.434
902.049
904.561
906.972
909.276
911.476
913.566
915.548
917.416
919.172
920.813
922.339
923.748
925.043
926.223
927.288
928.238
929.072
929.79
930.392
930.878
931.246
931.496
931.628
931.655
931.579
931.368
931.033
930.572
929.984
929.27
928.439
927.5
926.458
925.315
924.073
922.736
921.306
919.787
918.181
916.482
914.698
912.853
910.916
908.931
906.869
904.752
902.573
900.348
898.068
895.749
893.386
890.99
888.561
886.106
883.628
881.133
878.625
876.108
873.585
871.061
868.542
866.036
863.555
861.119
858.745
856.466
854.332
852.423
850.856
850.002
850.271
853.349
11463.2
2833
1707.02
1202.61
835.5
590.649
447.071
357.969
302.545
266.532
241.347
222.621
208.167
196.811
187.724
180.441
174.716
170.427
167.465
165.864
165.874
166.889
169.547
174.329
181.562
192.046
207.188
226.776
251.434
285.903
337.314
413.3
527.266
625.716
694.385
756.065
810.089
852.609
887.949
921.02
946.086
953.848
934.414
901.981
873.263
837.688
809.117
779.086
755.552
733.942
717.209
703.048
692.03
683.473
677.206
672.896
670.319
669.16
668.905
669.503
670.923
672.939
675.469
678.355
681.524
684.92
688.492
692.204
696.026
699.937
703.92
707.959
712.044
716.165
720.313
724.482
728.663
732.852
737.042
741.228
745.407
749.573
753.724
757.857
761.971
766.064
770.134
774.182
778.206
782.203
786.171
790.112
794.026
797.913
801.768
805.589
809.369
813.101
816.772
820.374
823.902
827.347
830.704
833.97
837.141
840.214
843.183
846.047
848.803
851.448
853.98
856.398
858.7
860.886
862.954
864.901
866.727
868.431
870.011
871.469
872.804
874.017
875.107
876.075
876.918
877.638
878.232
878.702
879.045
879.255
879.333
879.321
879.168
878.882
878.465
877.917
877.24
876.435
875.507
874.462
873.303
872.033
870.652
869.164
867.575
865.887
864.101
862.218
860.244
858.188
856.048
853.837
851.552
849.203
846.789
844.319
841.793
839.22
836.602
833.946
831.254
828.534
825.788
823.024
820.245
817.455
814.658
811.858
809.061
806.276
803.512
800.786
798.117
795.532
793.073
790.802
788.812
787.355
786.733
787.745
11463.2
3375.57
1768.57
1045.52
659.842
463.644
360.85
303.662
267.893
242.84
223.834
208.853
196.792
186.766
178.37
171.441
165.906
161.735
158.987
157.711
157.989
159.664
163.378
169.473
178.8
192.479
211.026
238.79
283.466
354.513
460.147
562.278
637.195
698.718
748.071
784.667
813.108
838.414
851.163
853.81
836.196
812.507
788.651
762.394
738.022
713.545
692.915
674.093
658.956
646.064
635.943
627.873
621.864
617.617
615.098
613.985
613.759
614.512
616.096
618.357
621.157
624.403
628
631.863
635.937
640.177
644.548
649.021
653.577
658.199
662.874
667.592
672.345
677.126
681.927
686.742
691.566
696.392
701.214
706.028
710.83
715.614
720.379
725.12
729.837
734.526
739.187
743.819
748.419
752.982
757.508
761.993
766.436
770.835
775.186
779.484
783.722
787.895
791.999
796.025
799.964
803.807
807.551
811.191
814.721
818.139
821.438
824.618
827.673
830.602
833.402
836.072
838.607
841.005
843.269
845.398
847.392
849.251
850.973
852.561
854.012
855.329
856.511
857.557
858.467
859.24
859.875
860.372
860.73
860.935
861.006
860.961
860.765
860.425
859.943
859.319
858.555
857.653
856.616
855.448
854.153
852.731
851.187
849.52
847.728
845.815
843.791
841.659
839.425
837.094
834.672
832.166
829.58
826.92
824.189
821.393
818.536
815.627
812.669
809.668
806.63
803.56
800.463
797.346
794.213
791.068
787.916
784.76
781.607
778.466
775.345
772.26
769.228
766.273
763.427
760.741
758.282
756.23
754.727
754.182
11463.2
3551.6
1583.77
833.249
524.963
385.834
315.012
273.637
246.773
228.074
213.92
202.233
191.876
182.793
174.945
168.384
163.253
159.762
157.945
157.806
159.156
162.472
168.485
177.967
193.55
218.442
256.131
316.393
404.115
495.932
568.694
627.862
676.958
715.572
745.629
767.848
777.107
776.473
761.289
743.258
723.417
703.214
683.687
664.305
646.362
629.87
615.909
603.945
594.276
586.459
580.496
576.132
573.32
571.991
571.655
572.272
573.811
576.126
579.086
582.588
586.526
590.825
595.412
600.226
605.22
610.358
615.61
620.953
626.368
631.842
637.362
642.919
648.504
654.111
659.733
665.366
671.002
676.633
682.254
687.86
693.444
699.003
704.534
710.032
715.495
720.921
726.308
731.655
736.956
742.209
747.409
752.554
757.64
762.663
767.619
772.502
777.306
782.028
786.666
791.206
795.639
799.956
804.155
808.229
812.174
815.986
819.661
823.195
826.586
829.831
832.927
835.873
838.67
841.316
843.811
846.154
848.346
850.385
852.273
854.009
855.594
857.028
858.31
859.441
860.42
861.246
861.918
862.435
862.796
862.983
863.03
862.929
862.666
862.244
861.663
860.925
860.031
858.983
857.785
856.439
854.948
853.315
851.543
849.634
847.593
845.425
843.133
840.722
838.198
835.566
832.832
830.004
827.087
824.088
821.011
817.862
814.647
811.374
808.049
804.679
801.267
797.821
794.346
790.85
787.337
783.812
780.278
776.741
773.209
769.688
766.189
762.725
759.311
755.97
752.726
749.621
746.702
744.077
741.8
739.967
11463.2
3434.75
1313.47
674.677
447.434
349.33
297.114
264.56
242.636
226.112
212.998
202.074
192.713
184.563
177.581
171.948
167.958
165.748
165.532
167.687
172.249
180.551
194.291
215.372
250.312
303.493
371.753
443.485
506.74
561.449
607.191
644.785
675.996
701.139
712.082
712.448
700.973
687.268
670.72
654.556
638.813
623.658
609.108
595.204
582.561
571.437
562.107
554.415
548.352
543.762
540.563
538.831
538.226
538.491
539.784
541.931
544.839
548.405
552.533
557.138
562.139
567.47
573.071
578.889
584.882
591.017
597.267
603.609
610.026
616.5
623.018
629.568
636.14
642.726
649.318
655.915
662.507
669.086
675.644
682.174
688.672
695.133
701.552
707.926
714.251
720.52
726.723
732.865
738.95
744.974
750.933
756.823
762.638
768.374
774.025
779.583
785.043
790.397
795.633
800.748
805.733
810.583
815.29
819.851
824.26
828.513
832.607
836.537
840.301
843.896
847.32
850.572
853.653
856.561
859.299
861.865
864.259
866.483
868.537
870.421
872.136
873.681
875.056
876.261
877.296
878.161
878.853
879.372
879.712
879.861
879.855
879.674
879.314
878.776
878.061
877.17
876.105
874.868
873.461
871.888
870.152
868.255
866.202
863.996
861.642
859.146
856.511
853.744
850.85
847.836
844.708
841.475
838.145
834.722
831.214
827.628
823.972
820.253
816.479
812.656
808.79
804.887
800.954
796.999
793.027
789.041
785.048
781.054
777.066
773.093
769.143
765.229
761.366
757.571
753.867
750.284
746.86
743.691
740.768
737.923
11463.2
3042.12
1061.08
569.499
402.639
326.866
286.116
260.614
242.686
229.507
218.882
209.786
201.845
195.078
189.688
186.247
185.07
186.651
191.352
199.989
213.233
233.959
264.397
306.083
355.931
407.891
458.565
504.796
545.188
579.904
609.38
635.61
650.571
654.097
648.344
638.975
626.003
613.001
600.153
588.14
576.666
565.623
555.053
545.189
536.405
528.896
522.749
517.916
514.363
512.109
511.114
510.98
511.86
513.667
516.337
519.778
523.907
528.642
533.906
539.627
545.741
552.187
558.908
565.855
572.985
580.265
587.666
595.171
602.761
610.406
618.089
625.798
633.517
641.231
648.921
656.554
664.149
671.722
679.271
686.787
694.263
701.695
709.078
716.409
723.683
730.897
738.052
745.142
752.152
759.074
765.904
772.637
779.267
785.788
792.194
798.477
804.629
810.643
816.512
822.231
827.795
833.196
838.428
843.485
848.363
853.058
857.566
861.883
866.007
869.936
873.668
877.203
880.542
883.685
886.634
889.389
891.953
894.325
896.508
898.501
900.306
901.922
903.349
904.586
905.635
906.493
907.159
907.634
907.903
907.976
907.862
907.552
907.044
906.339
905.437
904.339
903.046
901.561
899.887
898.027
895.984
893.763
891.367
888.801
886.07
883.181
880.139
876.951
873.623
870.163
866.577
862.876
859.067
855.158
851.157
847.072
842.913
838.688
834.406
830.072
825.694
821.278
816.831
812.36
807.872
803.373
798.867
794.363
789.869
785.392
780.943
776.532
772.172
767.88
763.674
759.578
755.619
751.868
748.301
744.518
11463.2
2579.28
909.585
525.694
387.441
321.982
286.174
264.956
250.829
240.33
231.916
224.966
219.415
215.833
214.56
216.09
221.527
230.416
242.313
259.118
282.511
312.373
347.389
385.28
423.423
459.885
493.647
523.79
550.254
574.297
591.83
598.681
598.861
593.973
585.493
575.799
565.682
556.158
547.145
538.607
530.346
522.356
514.781
507.876
501.889
496.961
493.146
490.433
488.971
488.504
488.937
490.347
492.682
495.88
499.886
504.624
510.023
516.013
522.527
529.501
536.883
544.637
552.678
560.959
569.435
578.067
586.808
595.593
604.389
613.239
622.134
631.057
639.992
648.917
657.818
666.7
675.549
684.353
693.114
701.812
710.439
718.994
727.476
735.882
744.208
752.446
760.588
768.623
776.547
784.356
792.047
799.612
807.047
814.343
821.493
828.489
835.323
841.988
848.478
854.787
860.908
866.833
872.556
878.071
883.373
888.459
893.326
897.971
902.392
906.589
910.559
914.305
917.826
921.127
924.207
927.072
929.723
932.164
934.395
936.418
938.232
939.84
941.24
942.431
943.415
944.189
944.754
945.104
945.234
945.151
944.856
944.345
943.617
942.671
941.508
940.129
938.535
936.729
934.715
932.495
930.073
927.454
924.642
921.643
918.464
915.111
911.591
907.911
904.081
900.106
895.995
891.759
887.406
882.945
878.387
873.742
869.02
864.23
859.381
854.48
849.534
844.549
839.532
834.493
829.436
824.369
819.3
814.237
809.188
804.162
799.168
794.215
789.317
784.486
779.738
775.094
770.573
766.232
762.042
757.404
11463.2
2144.36
794.597
485.743
372.92
319.975
291.861
275.115
264.124
256.324
250.596
246.737
245.034
245.309
249.04
256.34
266.971
280.431
297.535
318.48
342.818
369.56
397.466
425.254
451.949
476.632
499.126
520.121
538.085
547.748
550.656
550.242
546.445
540.495
533.543
526.51
519.694
513.25
507.049
501.015
495.116
489.449
484.2
479.588
475.796
472.933
471.158
470.45
470.57
471.713
473.788
476.778
480.648
485.364
490.915
497.19
504.115
511.627
519.663
528.149
536.99
546.046
555.403
565.04
574.92
584.999
595.239
605.616
616.113
626.658
637.214
647.753
658.27
668.714
679.064
689.314
699.454
709.475
719.37
729.158
738.847
748.44
757.942
767.355
776.673
785.884
794.976
803.936
812.754
821.426
829.947
838.312
846.513
854.543
862.391
870.048
877.507
884.76
891.8
898.622
905.217
911.578
917.697
923.568
929.186
934.55
939.658
944.509
949.102
953.437
957.515
961.338
964.908
968.229
971.304
974.14
976.743
979.117
981.263
983.183
984.879
986.351
987.6
988.623
989.423
989.996
990.341
990.459
990.342
989.994
989.413
988.6
987.551
986.267
984.747
982.992
981.005
978.787
976.342
973.674
970.786
967.684
964.372
960.859
957.15
953.253
949.177
944.93
940.521
935.958
931.252
926.411
921.444
916.365
911.186
905.918
900.573
895.159
889.686
884.161
878.591
872.983
867.345
861.683
856.006
850.322
844.641
838.972
833.324
827.705
822.123
816.588
811.109
805.7
800.375
795.15
790.041
785.096
780.297
774.864
11463.2
1964.68
769.038
480.216
374.555
327.215
302.867
289.092
280.749
275.534
272.824
271.954
273.121
277.238
284.317
294.195
306.617
321.519
338.611
357.415
377.542
398.226
418.576
437.868
456.185
473.864
489.723
500.818
506.031
507.679
507.819
505.792
502.265
498.03
493.568
489.152
484.832
480.61
476.445
472.356
468.419
464.783
461.623
459.119
457.51
456.861
457.042
458.337
460.608
463.802
467.887
472.835
478.6
485.099
492.155
499.883
508.306
517.38
527.043
537.231
547.891
559.016
570.499
582.283
594.32
606.564
618.952
631.44
644.003
656.538
668.971
681.246
693.303
705.142
716.759
728.154
739.337
750.326
761.147
771.831
782.388
792.833
803.183
813.444
823.609
833.659
843.571
853.326
862.907
872.308
881.525
890.552
899.382
908.005
916.408
924.583
932.516
940.203
947.634
954.804
961.704
968.326
974.66
980.702
986.447
991.894
997.044
1001.9
1006.45
1010.72
1014.7
1018.39
1021.8
1024.94
1027.8
1030.4
1032.75
1034.86
1036.72
1038.34
1039.73
1040.88
1041.8
1042.48
1042.92
1043.13
1043.09
1042.83
1042.31
1041.55
1040.54
1039.29
1037.79
1036.04
1034.04
1031.79
1029.29
1026.55
1023.57
1020.34
1016.89
1013.2
1009.3
1005.17
1000.84
996.313
991.595
986.697
981.629
976.401
971.024
965.505
959.854
954.09
948.227
942.275
936.247
930.152
923.998
917.793
911.547
905.264
898.953
892.618
886.272
879.925
873.588
867.271
860.983
854.731
848.523
842.367
836.271
830.249
824.312
818.479
812.761
807.196
801.795
795.604
11463.2
1868.01
736.832
473.877
379.432
337.079
315.942
304.59
298.36
295.34
294.377
295.248
298.812
304.728
312.847
322.894
334.6
347.693
361.846
376.674
391.688
406.377
420.801
435.128
448.217
458.306
464.893
468.844
470.846
471.492
471.419
470.158
468.303
466.158
463.891
461.587
459.272
456.982
454.769
452.746
451.087
450.135
449.774
450.053
451.207
453.197
455.947
459.321
463.424
468.464
474.467
481.421
489.292
498.047
507.71
518.199
529.466
541.441
554.04
567.185
580.809
594.854
609.218
623.819
638.597
653.54
668.49
683.341
697.973
712.34
726.386
740.059
753.319
766.154
778.568
790.569
802.209
813.551
824.688
835.704
846.595
857.383
868.115
878.807
889.437
899.965
910.353
920.564
930.575
940.381
949.976
959.353
968.504
977.416
986.076
994.47
1002.58
1010.41
1017.94
1025.16
1032.07
1038.65
1044.9
1050.81
1056.38
1061.6
1066.49
1071.04
1075.25
1079.15
1082.72
1085.98
1088.94
1091.59
1093.96
1096.06
1097.89
1099.46
1100.77
1101.82
1102.62
1103.2
1103.52
1103.6
1103.45
1103.08
1102.44
1101.58
1100.46
1099.1
1097.49
1095.63
1093.51
1091.13
1088.49
1085.6
1082.44
1079.04
1075.39
1071.49
1067.34
1062.96
1058.35
1053.51
1048.46
1043.2
1037.74
1032.1
1026.29
1020.32
1014.19
1007.92
1001.52
995.003
988.394
981.702
974.934
968.101
961.211
954.274
947.298
940.29
933.259
926.205
919.145
912.094
905.063
898.062
891.098
884.178
877.309
870.5
863.753
857.086
850.513
844.047
837.698
831.494
825.485
818.569
11463.2
1844.07
733.393
477.918
388.04
349.004
330.006
319.929
314.718
312.472
311.992
313.631
317.757
323.736
331.226
339.878
349.468
359.745
370.44
381.259
392.281
403.584
413.857
422.045
428.51
433.6
437.587
440.438
442.49
443.972
445.025
445.687
446.194
446.761
447.231
447.648
448.067
448.56
449.197
450.041
451.093
452.248
454.088
456.867
460.797
465.739
471.671
478.674
486.746
495.874
506.071
517.33
529.593
542.802
556.925
571.88
587.668
604.144
621.12
638.468
656.079
673.849
691.672
709.444
727.057
744.355
761.318
777.868
793.91
809.356
824.117
838.154
851.453
864.057
876.005
887.27
898.002
908.323
918.468
928.721
938.892
949.018
959.236
969.573
979.942
990.258
1000.46
1010.5
1020.34
1029.98
1039.41
1048.6
1057.56
1066.28
1074.72
1082.88
1090.73
1098.26
1105.46
1112.33
1118.84
1125
1130.78
1136.17
1141.18
1145.8
1150.04
1153.9
1157.39
1160.52
1163.31
1165.76
1167.86
1169.65
1171.14
1172.34
1173.27
1173.92
1174.29
1174.41
1174.25
1173.91
1173.3
1172.46
1171.38
1170.09
1168.57
1166.81
1164.82
1162.59
1160.11
1157.39
1154.41
1151.18
1147.69
1143.94
1139.94
1135.69
1131.19
1126.44
1121.44
1116.21
1110.74
1105.05
1099.14
1093.02
1086.7
1080.2
1073.53
1066.7
1059.72
1052.61
1045.39
1038.08
1030.67
1023.18
1015.62
1008
1000.32
992.602
984.848
977.069
969.275
961.461
953.654
945.868
938.114
930.399
922.729
915.112
907.554
900.064
892.639
885.302
878.065
870.945
863.947
857.087
850.468
842.857
11463.7
1814.64
728.31
483.243
397.467
360.108
342.019
332.448
327.321
325.102
324.592
326.001
329.604
334.626
340.708
347.529
354.911
362.735
370.897
378.935
386.7
393.771
400.354
406.628
412.369
417.679
422.626
427.242
431.595
435.724
439.581
443.119
446.254
448.894
451.527
454.279
457.239
460.51
464.192
468.409
473.318
479.182
486.138
494.48
504.313
515.261
527.347
540.598
554.98
570.454
587.026
604.789
623.511
642.973
663.016
683.472
704.12
724.842
745.565
766.181
786.582
806.674
826.376
845.62
864.339
882.469
899.972
916.805
932.912
948.215
962.552
975.943
988.453
1000.21
1011.31
1021.83
1031.78
1041.17
1050.1
1058.69
1067
1075.25
1083.94
1093.07
1102.34
1111.58
1120.73
1129.72
1138.54
1147.15
1155.55
1163.74
1171.7
1179.42
1186.87
1194.03
1200.87
1207.39
1213.55
1219.37
1224.82
1229.89
1234.54
1238.79
1242.61
1246.01
1249
1251.59
1253.75
1255.57
1257.03
1258.11
1258.84
1259.24
1259.28
1259.07
1258.63
1257.89
1256.89
1255.65
1254.17
1252.48
1250.57
1248.45
1246.11
1243.58
1240.84
1237.88
1234.72
1231.33
1227.72
1223.88
1219.81
1215.49
1210.94
1206.14
1201.11
1195.83
1190.32
1184.57
1178.59
1172.37
1165.93
1159.26
1152.39
1145.31
1138.05
1130.6
1122.99
1115.22
1107.32
1099.29
1091.17
1082.96
1074.66
1066.28
1057.83
1049.32
1040.77
1032.17
1023.55
1014.92
1006.27
997.658
989.072
980.52
972.008
963.543
955.129
946.776
938.49
930.28
922.143
914.106
906.182
898.384
890.717
883.183
875.94
867.66
11462.8
1792.78
725.778
488.134
404.051
367.492
349.817
340.321
335.147
332.915
332.331
333.374
336.45
340.793
346.178
352.328
358.995
366.03
373.246
380.752
388.259
395.644
402.923
410.092
417.13
424.103
431.055
438.022
445.063
452.215
459.366
466.574
473.986
481.795
490.009
498.738
508.087
518.176
529.128
541.094
554.206
568.597
584.232
601.025
618.73
637.534
657.496
678.542
700.538
723.361
746.905
771
795.325
819.706
843.957
867.9
891.344
914.148
936.206
957.434
977.778
997.213
1015.74
1033.37
1050.14
1066.03
1081.1
1095.36
1108.85
1121.6
1133.68
1145.06
1155.61
1165.6
1175.14
1184.36
1193.12
1201.32
1208.89
1215.72
1222.2
1228.65
1235.59
1242.75
1249.9
1256.94
1263.84
1270.57
1277.14
1283.52
1289.71
1295.72
1301.53
1307.12
1312.46
1317.52
1322.28
1326.73
1330.85
1334.64
1338.09
1341.16
1343.82
1346.08
1347.93
1349.37
1350.43
1351.11
1351.32
1351.28
1350.93
1350.21
1349.17
1347.81
1346.18
1344.31
1342.2
1339.87
1337.32
1334.57
1331.62
1328.49
1325.19
1321.71
1318.05
1314.23
1310.24
1306.07
1301.71
1297.17
1292.44
1287.5
1282.36
1277
1271.42
1265.63
1259.62
1253.4
1246.95
1240.29
1233.41
1226.32
1219.01
1211.5
1203.79
1195.89
1187.82
1179.57
1171.17
1162.61
1153.92
1145.09
1136.16
1127.13
1118
1108.8
1099.52
1090.19
1080.81
1071.39
1061.96
1052.51
1043.05
1033.64
1024.27
1014.94
1005.65
996.407
987.223
978.106
969.066
960.112
951.272
942.549
933.95
925.485
917.158
908.966
901.106
892.217
11461.8
1775.07
724.272
489.554
407.011
372.063
355.097
346.205
341.767
340.074
339.911
341.726
345.389
350.378
356.393
363.164
370.887
379.5
388.28
397.749
407.947
418.927
430.35
442.13
454.433
467.282
480.678
494.62
509.11
524.119
539.776
556.215
573.518
591.739
610.811
630.764
651.647
673.542
696.582
720.986
746.625
773.373
800.998
829.227
857.864
886.983
916.999
947.42
977.729
1007.62
1036.68
1064.4
1090.87
1116.02
1139.76
1161.99
1182.68
1201.81
1219.39
1235.46
1250.08
1263.31
1275.23
1286.08
1295.89
1304.7
1312.64
1319.8
1326.3
1332.25
1337.97
1343.52
1348.97
1354.27
1359.36
1364.22
1368.73
1372.79
1376.64
1380.4
1384.35
1388.77
1393.07
1397.05
1400.74
1404.25
1407.64
1410.94
1414.16
1417.3
1420.33
1423.24
1426
1428.59
1430.99
1433.17
1435.13
1436.84
1438.3
1439.47
1440.35
1440.94
1441.13
1440.98
1440.46
1439.63
1438.47
1436.99
1435.19
1433.11
1430.77
1428.15
1425.28
1422.18
1418.87
1415.38
1411.72
1407.89
1403.9
1399.77