/*--------------------------------*- C++ -*----------------------------------*\
  =========                 |
  \\      /  F ield         | OpenFOAM: The Open Source CFD Toolbox
   \\    /   O peration     | Website:  https://openfoam.org
    \\  /    A nd           | Version:  13
     \\/     M anipulation  |
\*---------------------------------------------------------------------------*/
FoamFile
{
    format      ascii;
    class       volScalarField;
    location    "600";
    object      p;
}
// * * * * * * * * * * * * * * * * * * * * * * * * * * * * * * * * * * * * * //

dimensions      [0 2 -2 0 0 0 0];

internalField   nonuniform List<scalar> 
12225
(
-4.31377
-5.17526
-5.58684
-5.73734
-5.88706
-6.05747
-6.20421
-6.32098
-6.42638
-6.52721
-6.62237
-6.70979
-6.78666
-6.85257
-6.91444
-6.97677
-7.04715
-7.14472
-4.59377
-5.21544
-5.56568
-5.71268
-5.8588
-6.02696
-6.17288
-6.28972
-6.3953
-6.49684
-6.58991
-6.67137
-6.74775
-6.81957
-6.88409
-6.94897
-7.01682
-7.07167
-4.76821
-5.20591
-5.54463
-5.72052
-5.87168
-6.0332
-6.1762
-6.29261
-6.39561
-6.49361
-6.58314
-6.66227
-6.73572
-6.80395
-6.86581
-6.9264
-6.98437
-7.02786
-4.90933
-5.22451
-5.54896
-5.73606
-5.88016
-6.02876
-6.16523
-6.27953
-6.38021
-6.47501
-6.5627
-6.64165
-6.71434
-6.78166
-6.84328
-6.90132
-6.95475
-6.99597
-5.05457
-5.28913
-5.56847
-5.74839
-5.88614
-6.02571
-6.15797
-6.27192
-6.37218
-6.46532
-6.55172
-6.62996
-6.70127
-6.76674
-6.82647
-6.8813
-6.93057
-6.96962
-5.17207
-5.34267
-5.58307
-5.75752
-5.89245
-6.02551
-6.1532
-6.26539
-6.36405
-6.45462
-6.53846
-6.61464
-6.68384
-6.74709
-6.80465
-6.85678
-6.90282
-6.93978
-5.26853
-5.40133
-5.60588
-5.77315
-5.90468
-6.03089
-6.15253
-6.26128
-6.35743
-6.44522
-6.52634
-6.60038
-6.66767
-6.72898
-6.78456
-6.83436
-6.87774
-6.91285
-5.35086
-5.46133
-5.63705
-5.79304
-5.91906
-6.038
-6.15289
-6.25728
-6.35043
-6.43535
-6.51368
-6.58537
-6.65056
-6.70974
-6.76311
-6.81055
-6.85151
-6.88488
-5.43011
-5.51944
-5.66983
-5.81314
-5.93288
-6.04487
-6.15313
-6.25298
-6.34301
-6.42515
-6.50081
-6.57015
-6.63322
-6.69029
-6.74156
-6.7869
-6.82592
-6.85805
-5.50785
-5.57682
-5.70304
-5.83277
-5.94562
-6.05103
-6.15308
-6.2484
-6.33521
-6.41459
-6.48764
-6.55459
-6.61547
-6.67047
-6.71973
-6.76319
-6.80062
-6.83178
-5.57852
-5.63156
-5.73667
-5.8526
-5.95797
-6.057
-6.15307
-6.24374
-6.32712
-6.40361
-6.47399
-6.53851
-6.59721
-6.65021
-6.69763
-6.73947
-6.77566
-6.80617
-5.63662
-5.6789
-5.76781
-5.87151
-5.96963
-6.06281
-6.15343
-6.23964
-6.3196
-6.39327
-6.46114
-6.5234
-6.58014
-6.63138
-6.67728
-6.71786
-6.75318
-6.78329
-5.68838
-5.72293
-5.79829
-5.89062
-5.98151
-6.06892
-6.15417
-6.23587
-6.31231
-6.38308
-6.4484
-6.50849
-6.56328
-6.6129
-6.65738
-6.69688
-6.73148
-6.76136
-5.74064
-5.76888
-5.83168
-5.91235
-5.99512
-6.07606
-6.1554
-6.23203
-6.30439
-6.37181
-6.43431
-6.4919
-6.54461
-6.59244
-6.63551
-6.67391
-6.70789
-6.73755
-5.79153
-5.81457
-5.8664
-5.93576
-6.00987
-6.08385
-6.15693
-6.2281
-6.29597
-6.35968
-6.41904
-6.47395
-6.52442
-6.57038
-6.612
-6.64935
-6.68272
-6.71225
-5.83829
-5.85714
-5.89988
-5.95903
-6.02454
-6.09144
-6.15823
-6.22385
-6.28702
-6.34684
-6.40288
-6.45504
-6.50313
-6.54727
-6.58739
-6.6238
-6.65654
-6.686
-5.87686
-5.89251
-5.92832
-5.97907
-6.03691
-6.09723
-6.15818
-6.21859
-6.27725
-6.33325
-6.38608
-6.43549
-6.48137
-6.52367
-6.56249
-6.59793
-6.63021
-6.65947
-5.90126
-5.91482
-5.94608
-5.99107
-6.04328
-6.09852
-6.15487
-6.21109
-6.26605
-6.31883
-6.36891
-6.41596
-6.45992
-6.50068
-6.53837
-6.57301
-6.60483
-6.63394
-5.90197
-5.91486
-5.94468
-5.98774
-6.03777
-6.09076
-6.14488
-6.19896
-6.25192
-6.30285
-6.35127
-6.39688
-6.43963
-6.47943
-6.51642
-6.5506
-6.58219
-6.6113
-5.87088
-5.88542
-5.9186
-5.96541
-6.01838
-6.07335
-6.12896
-6.18412
-6.23786
-6.28918
-6.3378
-6.38338
-6.42609
-6.46571
-6.5026
-6.53661
-6.56819
-6.59731
-5.82546
-5.84304
-5.88269
-5.9366
-5.99513
-6.05423
-6.1131
-6.17107
-6.22681
-6.27964
-6.32922
-6.37566
-6.41884
-6.45895
-6.4959
-6.53009
-6.56147
-6.59065
-5.7668
-5.78965
-5.83971
-5.90405
-5.96993
-6.03428
-6.09786
-6.15978
-6.21847
-6.27319
-6.32408
-6.37145
-6.41539
-6.456
-6.49332
-6.52761
-6.55907
-6.58818
-5.69699
-5.72833
-5.79377
-5.87099
-5.94487
-6.01515
-6.08406
-6.15064
-6.21275
-6.26974
-6.32225
-6.37071
-6.41546
-6.45643
-6.49396
-6.52807
-6.55928
-6.58776
-5.61683
-5.66189
-5.74855
-5.84004
-5.92117
-5.99794
-6.07317
-6.14429
-6.20911
-6.26801
-6.32211
-6.372
-6.41776
-6.45951
-6.49733
-6.53178
-6.56323
-6.59219
-5.52626
-5.59288
-5.70794
-5.81247
-5.89842
-5.98232
-6.0659
-6.14253
-6.20917
-6.26842
-6.32307
-6.37368
-6.41999
-6.46173
-6.49932
-6.53341
-6.56466
-6.59412
-5.4252
-5.52412
-5.67403
-5.78966
-5.87735
-5.96489
-6.05756
-6.14213
-6.21267
-6.2729
-6.32753
-6.37862
-6.42533
-6.46682
-6.50367
-6.53705
-6.56742
-6.59559
-5.3135
-5.46003
-5.64401
-5.76808
-5.86079
-5.94971
-6.04581
-6.13528
-6.21154
-6.27629
-6.33199
-6.38317
-6.42961
-6.47016
-6.5059
-6.53836
-6.56919
-6.59623
-5.18036
-5.41534
-5.6214
-5.74016
-5.84435
-5.946
-6.04454
-6.13105
-6.20924
-6.28183
-6.34438
-6.39881
-6.44518
-6.48419
-6.51845
-6.54849
-6.58021
-6.61209
-4.98316
-5.38739
-5.62523
-5.72169
-5.81893
-5.9418
-6.047
-6.12571
-6.19547
-6.2679
-6.3396
-6.40136
-6.44941
-6.4875
-6.51998
-6.54882
-6.57561
-6.60349
-4.72588
-5.32149
-5.62462
-5.72663
-5.8233
-5.96916
-6.08537
-6.16129
-6.22267
-6.28883
-6.36467
-6.43089
-6.47962
-6.51633
-6.54603
-6.57299
-6.59232
-6.60727
-7.51985
-7.51997
-7.52002
-7.51998
-7.51961
-7.51835
-7.51586
-7.51263
-7.50957
-7.50763
-7.50773
-7.51005
-7.51415
-7.51929
-7.52476
-7.5299
-7.53417
-7.53718
-7.53887
-7.53957
-7.53952
-7.53891
-7.53799
-7.53704
-7.53629
-7.53586
-7.5357
-7.53565
-7.53551
-7.53519
-7.53469
-7.53406
-7.53327
-7.53223
-7.53096
-7.52971
-7.52899
-7.52951
-7.53156
-7.53468
-7.53799
-7.54079
-7.54301
-7.54499
-7.54712
-7.54987
-7.55328
-7.55661
-7.55922
-7.56204
-7.56805
-7.58132
-7.60352
-7.63358
-7.67062
-7.71533
-7.76809
-7.82772
-7.89242
-7.96026
-8.02949
-8.09825
-8.16504
-8.22898
-8.2895
-8.34589
-8.39791
-8.44555
-8.48883
-8.52786
-8.56274
-8.59358
-8.62048
-8.64353
-8.66275
-8.6782
-8.68986
-8.69771
-8.7017
-8.70179
-8.69786
-8.68985
-8.67759
-8.66101
-8.63992
-8.61422
-8.58373
-8.54835
-8.50794
-8.46242
-8.41169
-8.35563
-8.29413
-8.22711
-8.15447
-8.07615
-7.99208
-7.90222
-7.8066
-7.70527
-7.59822
-7.48518
-7.36601
-7.24086
-7.10996
-6.97343
-6.83143
-6.68403
-6.53138
-6.37357
-6.21073
-6.04296
-5.87037
-5.69306
-5.51114
-5.32465
-5.13367
-4.93825
-4.73848
-4.53446
-4.32629
-4.11403
-3.89776
-3.67755
-3.45345
-3.22558
-2.99403
-2.75891
-2.52036
-2.27853
-2.03357
-1.78568
-1.53504
-1.2819
-1.02651
-0.769135
-0.510112
-0.249629
0.0122474
0.275288
0.539087
0.803317
1.06767
1.33183
1.59551
1.85843
2.12031
2.3809
2.63995
2.89722
3.15249
3.40554
3.65617
3.90419
4.14944
4.39176
4.63102
4.8671
5.09991
5.32937
5.55542
5.77802
5.99711
6.21266
6.42465
6.63302
6.83777
7.03885
7.23626
7.42995
7.61992
7.80614
7.98857
8.16718
8.34194
8.51286
8.6801
8.84361
9.00647
9.15966
-7.52103
-7.52121
-7.52154
-7.52185
-7.52177
-7.5209
-7.519
-7.51662
-7.51493
-7.51482
-7.51657
-7.52003
-7.52472
-7.53001
-7.53534
-7.54019
-7.54424
-7.54726
-7.54909
-7.54951
-7.54864
-7.54677
-7.54431
-7.54172
-7.5394
-7.53762
-7.53642
-7.53563
-7.53503
-7.53446
-7.53394
-7.53347
-7.53295
-7.53229
-7.53144
-7.5307
-7.53077
-7.53227
-7.53515
-7.53859
-7.54148
-7.54317
-7.54391
-7.54407
-7.54352
-7.54305
-7.54454
-7.54984
-7.55665
-7.56263
-7.5709
-7.58418
-7.60299
-7.62946
-7.66648
-7.71474
-7.77219
-7.83618
-7.90441
-7.97465
-8.04479
-8.11322
-8.17917
-8.24174
-8.29986
-8.35357
-8.40305
-8.44833
-8.48955
-8.5268
-8.5602
-8.58984
-8.61579
-8.6381
-8.65679
-8.67187
-8.6833
-8.69104
-8.69504
-8.69522
-8.69149
-8.68374
-8.67185
-8.65569
-8.63511
-8.60996
-8.5801
-8.54537
-8.50568
-8.46089
-8.41093
-8.35565
-8.29497
-8.22877
-8.15699
-8.07953
-7.99634
-7.90732
-7.8124
-7.71147
-7.60446
-7.4915
-7.37279
-7.24836
-7.11823
-6.9825
-6.84128
-6.69467
-6.54278
-6.38574
-6.22365
-6.05663
-5.88479
-5.70825
-5.52708
-5.34137
-5.15118
-4.95656
-4.7576
-4.55439
-4.34702
-4.13558
-3.92013
-3.70072
-3.47743
-3.25035
-3.01958
-2.78522
-2.54742
-2.30629
-2.06201
-1.81474
-1.56467
-1.31201
-1.05696
-0.799737
-0.540565
-0.279808
-0.0179178
0.244885
0.508463
0.772512
1.03673
1.3008
1.56444
1.82735
2.08928
2.34995
2.60912
2.86654
3.12199
3.37525
3.62613
3.87443
4.11998
4.36263
4.60222
4.83866
5.07184
5.30167
5.5281
5.75107
5.97054
6.18648
6.39885
6.60761
6.81274
7.01422
7.21202
7.40611
7.59649
7.78313
7.96601
8.14516
8.32057
8.49225
8.66051
8.82467
8.98987
9.14249
-7.52234
-7.52235
-7.52238
-7.52243
-7.52245
-7.52241
-7.52254
-7.52337
-7.52535
-7.52859
-7.53292
-7.53798
-7.54338
-7.54871
-7.55361
-7.55779
-7.56106
-7.56329
-7.56441
-7.56436
-7.56315
-7.56091
-7.5578
-7.55403
-7.54984
-7.5455
-7.54131
-7.53751
-7.5343
-7.53178
-7.5299
-7.52844
-7.52714
-7.52594
-7.52522
-7.52562
-7.52777
-7.53171
-7.53637
-7.5401
-7.54143
-7.54043
-7.53874
-7.53815
-7.53889
-7.54022
-7.54357
-7.55131
-7.56327
-7.57911
-7.59993
-7.62638
-7.65874
-7.69751
-7.743
-7.79449
-7.85053
-7.90965
-7.97049
-8.03183
-8.0925
-8.15162
-8.20865
-8.26316
-8.31464
-8.36289
-8.40782
-8.4494
-8.48761
-8.52245
-8.55394
-8.58208
-8.60688
-8.62831
-8.64635
-8.66096
-8.67209
-8.67968
-8.68364
-8.6839
-8.68034
-8.67285
-8.66132
-8.64561
-8.62557
-8.60104
-8.57185
-8.53788
-8.49897
-8.45501
-8.40589
-8.35147
-8.29166
-8.22633
-8.15543
-8.07884
-7.99654
-7.90843
-7.81448
-7.71458
-7.60869
-7.49684
-7.37916
-7.25572
-7.12658
-6.99184
-6.85159
-6.70595
-6.55503
-6.39895
-6.23782
-6.07177
-5.9009
-5.72533
-5.54516
-5.36046
-5.17129
-4.97771
-4.77981
-4.57768
-4.3714
-4.16104
-3.94666
-3.72833
-3.50612
-3.28011
-3.05039
-2.81706
-2.58026
-2.34011
-2.09677
-1.8504
-1.6012
-1.34937
-1.09512
-0.838667
-0.580248
-0.320178
-0.0588447
0.203512
0.466684
0.730386
0.994303
1.25814
1.52159
1.78438
2.04622
2.30686
2.56603
2.8235
3.07904
3.33243
3.58347
3.83197
4.07774
4.32063
4.5605
4.79722
5.03069
5.26082
5.48756
5.71082
5.93059
6.1468
6.35945
6.56848
6.77387
6.97559
7.17362
7.36794
7.55854
7.7454
7.9285
8.10784
8.28344
8.45536
8.62417
8.78859
8.95638
9.10465
-7.52352
-7.52327
-7.52292
-7.52291
-7.52395
-7.52647
-7.53033
-7.53517
-7.54065
-7.54647
-7.55234
-7.55805
-7.56338
-7.56815
-7.5722
-7.57539
-7.57762
-7.57883
-7.57899
-7.57806
-7.57606
-7.57305
-7.56911
-7.56433
-7.5588
-7.55265
-7.54607
-7.53933
-7.53277
-7.52672
-7.52145
-7.51712
-7.51392
-7.51222
-7.51267
-7.51577
-7.5209
-7.52645
-7.5307
-7.53296
-7.53346
-7.53327
-7.53401
-7.53661
-7.54152
-7.54947
-7.5614
-7.57799
-7.5994
-7.62551
-7.65601
-7.69054
-7.72897
-7.77105
-7.8165
-7.86483
-7.91549
-7.96785
-8.02125
-8.07495
-8.12825
-8.18052
-8.23128
-8.28011
-8.32669
-8.37078
-8.41223
-8.4509
-8.48672
-8.51962
-8.54956
-8.57647
-8.60032
-8.62105
-8.63859
-8.65288
-8.66383
-8.67136
-8.67539
-8.6758
-8.67249
-8.66534
-8.65422
-8.639
-8.61953
-8.59565
-8.56718
-8.53398
-8.49589
-8.45277
-8.40452
-8.351
-8.29208
-8.22766
-8.15764
-8.08194
-8.00049
-7.91324
-7.82011
-7.72107
-7.61607
-7.50515
-7.38838
-7.26583
-7.13757
-7.0037
-6.86432
-6.71953
-6.56947
-6.41424
-6.25397
-6.08879
-5.91881
-5.74414
-5.56488
-5.38112
-5.19292
-5.00034
-4.80346
-4.60236
-4.39714
-4.18784
-3.97453
-3.75726
-3.53611
-3.31115
-3.08247
-2.85017
-2.61436
-2.37518
-2.13277
-1.88729
-1.63894
-1.38791
-1.13441
-0.878668
-0.620933
-0.361502
-0.1007
0.161229
0.424031
0.687413
0.951065
1.21469
1.47798
1.74066
2.00245
2.26307
2.52227
2.77981
3.03545
3.28897
3.54018
3.78886
4.03486
4.27799
4.51812
4.7551
4.98885
5.21927
5.44628
5.66983
5.88987
6.10636
6.31926
6.52854
6.73416
6.93611
7.13434
7.32884
7.51961
7.70662
7.88988
8.06938
8.24519
8.41731
8.58641
8.75064
8.91911
9.06096
-7.52578
-7.52523
-7.52485
-7.52614
-7.5301
-7.53613
-7.54317
-7.5505
-7.55768
-7.56443
-7.57062
-7.57618
-7.58105
-7.58516
-7.58844
-7.59079
-7.59217
-7.5925
-7.59178
-7.58997
-7.58709
-7.58315
-7.57821
-7.57231
-7.56553
-7.55792
-7.54957
-7.54066
-7.53147
-7.52244
-7.51416
-7.50732
-7.50279
-7.50149
-7.5037
-7.50812
-7.5131
-7.51771
-7.52147
-7.52453
-7.52758
-7.53167
-7.53783
-7.54685
-7.55964
-7.57679
-7.59818
-7.62315
-7.65136
-7.68255
-7.71639
-7.75274
-7.79154
-7.8327
-7.87604
-7.92126
-7.96796
-8.01572
-8.06405
-8.11246
-8.16047
-8.20765
-8.25363
-8.29807
-8.34072
-8.38134
-8.41977
-8.45588
-8.48953
-8.52064
-8.5491
-8.57484
-8.59776
-8.61777
-8.63479
-8.64873
-8.65947
-8.66692
-8.67097
-8.67151
-8.66841
-8.66156
-8.65081
-8.63604
-8.61708
-8.59378
-8.56596
-8.53344
-8.49606
-8.45371
-8.40622
-8.35349
-8.29533
-8.23169
-8.16242
-8.08749
-8.00677
-7.92024
-7.8278
-7.72944
-7.62512
-7.51487
-7.39876
-7.27684
-7.14922
-7.01596
-6.8772
-6.73303
-6.58359
-6.42899
-6.26937
-6.10484
-5.93554
-5.76158
-5.58307
-5.40007
-5.21266
-5.02091
-4.82489
-4.6247
-4.42038
-4.212
-3.99961
-3.78327
-3.56303
-3.33898
-3.11119
-2.87977
-2.64482
-2.40646
-2.16483
-1.9201
-1.67245
-1.42207
-1.16917
-0.913986
-0.656765
-0.397803
-0.137385
0.124223
0.38676
0.649915
0.913392
1.17688
1.44008
1.70271
1.96449
2.22513
2.48439
2.74201
2.99776
3.25141
3.50277
3.75163
3.99782
4.24115
4.48149
4.7187
4.95267
5.18332
5.41056
5.63434
5.8546
6.07131
6.28443
6.49391
6.69972
6.90185
7.10026
7.29493
7.48586
7.67302
7.85641
8.03605
8.21198
8.38413
8.55318
8.71671
8.88476
9.01962
-7.52999
-7.5291
-7.52956
-7.53375
-7.54089
-7.5491
-7.5574
-7.56535
-7.57268
-7.57933
-7.58528
-7.59051
-7.59497
-7.5986
-7.60133
-7.60308
-7.60382
-7.60349
-7.6021
-7.59961
-7.59603
-7.59138
-7.58568
-7.57894
-7.57116
-7.56239
-7.55277
-7.54247
-7.53179
-7.5213
-7.51182
-7.50442
-7.50019
-7.49938
-7.50094
-7.50359
-7.50692
-7.51111
-7.51637
-7.52288
-7.53078
-7.54088
-7.5542
-7.57122
-7.59185
-7.61566
-7.64231
-7.67145
-7.70276
-7.73608
-7.77123
-7.80812
-7.84664
-7.88668
-7.92809
-7.97064
-8.01407
-8.05807
-8.10233
-8.14652
-8.19032
-8.23342
-8.27554
-8.31642
-8.35583
-8.39358
-8.42949
-8.4634
-8.4952
-8.52474
-8.5519
-8.57658
-8.59866
-8.61803
-8.63458
-8.64818
-8.65873
-8.66611
-8.6702
-8.67086
-8.66798
-8.66141
-8.65103
-8.63668
-8.61822
-8.59546
-8.56823
-8.53634
-8.49964
-8.45792
-8.41113
-8.35904
-8.30155
-8.23852
-8.16988
-8.09551
-8.01536
-7.92934
-7.83739
-7.73947
-7.63557
-7.52572
-7.40998
-7.28844
-7.16117
-7.02827
-6.88985
-6.74603
-6.59694
-6.44272
-6.2835
-6.1194
-5.95058
-5.77712
-5.59915
-5.41673
-5.22994
-5.03886
-4.84355
-4.64409
-4.44054
-4.23293
-4.02132
-3.80576
-3.5863
-3.36301
-3.13598
-2.90529
-2.67103
-2.43334
-2.19234
-1.94821
-1.70111
-1.45122
-1.19878
-0.944001
-0.687143
-0.428498
-0.168333
0.0930771
0.355456
0.61849
0.88188
1.14531
1.4085
1.67113
1.93294
2.19365
2.45299
2.7107
2.96656
3.22035
3.47185
3.72085
3.96718
4.21067
4.45116
4.68853
4.92266
5.15346
5.38086
5.60479
5.8252
6.04205
6.2553
6.46491
6.67085
6.87309
7.0716
7.26637
7.45738
7.64461
7.82806
8.00772
8.18361
8.3556
8.52431
8.68686
8.85426
8.98223
-7.53538
-7.53489
-7.53738
-7.54424
-7.55279
-7.56131
-7.56942
-7.577
-7.584
-7.59037
-7.59608
-7.60105
-7.60522
-7.60851
-7.61085
-7.6122
-7.6125
-7.61174
-7.6099
-7.60695
-7.60293
-7.59783
-7.59161
-7.5842
-7.57567
-7.56618
-7.55593
-7.54519
-7.53434
-7.52406
-7.51537
-7.50921
-7.50556
-7.50366
-7.50316
-7.50432
-7.50758
-7.51316
-7.5209
-7.53112
-7.54439
-7.56091
-7.58053
-7.60299
-7.62806
-7.6554
-7.6847
-7.71582
-7.74856
-7.7828
-7.81838
-7.85516
-7.89303
-7.93187
-7.97155
-8.0119
-8.05274
-8.09387
-8.13507
-8.17611
-8.21676
-8.25679
-8.29599
-8.33413
-8.37104
-8.40652
-8.44042
-8.47259
-8.50287
-8.53112
-8.55722
-8.58102
-8.6024
-8.62123
-8.63737
-8.65071
-8.66111
-8.66844
-8.67258
-8.67338
-8.67072
-8.66446
-8.65444
-8.64052
-8.62253
-8.6003
-8.57363
-8.54234
-8.50621
-8.46513
-8.41892
-8.36739
-8.31044
-8.24791
-8.17973
-8.10578
-8.026
-7.94029
-7.84861
-7.75091
-7.64718
-7.53749
-7.42188
-7.30045
-7.17326
-7.04044
-6.9021
-6.75838
-6.60939
-6.45532
-6.29627
-6.1324
-5.96384
-5.7907
-5.61309
-5.43109
-5.24478
-5.05422
-4.85949
-4.66064
-4.45772
-4.25076
-4.03982
-3.82491
-3.60612
-3.38348
-3.15708
-2.92699
-2.69331
-2.45616
-2.21567
-1.972
-1.72531
-1.47581
-1.22369
-0.969187
-0.712573
-0.454117
-0.194096
0.0672256
0.329539
0.592548
0.85593
1.11939
1.38261
1.64532
1.9072
2.168
2.42743
2.68525
2.94123
3.19513
3.44675
3.69587
3.94231
4.18589
4.42648
4.66394
4.89816
5.12904
5.35652
5.58052
5.80101
6.01793
6.23124
6.4409
6.64688
6.84914
7.04767
7.24245
7.43345
7.62067
7.80409
7.98366
8.1594
8.33108
8.4993
8.66074
8.82752
8.94902
-7.53991
-7.54061
-7.54557
-7.55357
-7.56187
-7.56981
-7.57738
-7.58456
-7.59127
-7.59743
-7.60296
-7.60775
-7.61173
-7.61482
-7.61695
-7.61808
-7.61816
-7.61716
-7.61508
-7.61192
-7.60769
-7.60231
-7.59569
-7.58794
-7.57927
-7.56982
-7.55978
-7.54951
-7.53966
-7.53105
-7.52421
-7.51882
-7.51436
-7.51117
-7.51017
-7.51167
-7.51581
-7.52324
-7.53425
-7.54863
-7.56614
-7.5865
-7.60945
-7.6347
-7.66198
-7.69105
-7.72171
-7.75381
-7.78717
-7.82167
-7.85715
-7.89351
-7.93063
-7.96841
-8.00671
-8.04541
-8.08437
-8.12344
-8.16246
-8.20125
-8.23965
-8.27746
-8.31452
-8.35065
-8.3857
-8.41948
-8.45187
-8.48269
-8.51181
-8.53907
-8.56433
-8.58745
-8.60828
-8.62668
-8.64252
-8.65567
-8.66597
-8.67329
-8.67751
-8.67848
-8.67606
-8.6701
-8.66046
-8.64696
-8.62945
-8.60772
-8.5816
-8.55086
-8.51531
-8.47475
-8.42906
-8.37804
-8.32151
-8.25938
-8.19151
-8.11784
-8.03826
-7.95269
-7.86108
-7.76338
-7.65962
-7.54984
-7.43413
-7.31255
-7.18522
-7.05223
-6.91374
-6.76987
-6.62078
-6.46663
-6.30756
-6.14373
-5.97526
-5.80228
-5.62488
-5.44317
-5.2572
-5.06706
-4.8728
-4.67446
-4.47208
-4.26568
-4.05531
-3.84098
-3.62276
-3.40067
-3.17481
-2.94523
-2.71204
-2.47533
-2.23525
-1.99195
-1.74558
-1.49635
-1.24446
-0.99014
-0.733669
-0.475306
-0.215329
0.0459802
0.308313
0.571363
0.83481
1.09835
1.36167
1.62448
1.88648
2.14739
2.40694
2.66489
2.92098
3.175
3.42673
3.67594
3.92246
4.16611
4.40675
4.64425
4.87851
5.10942
5.33693
5.56095
5.78145
5.99838
6.21169
6.42133
6.62728
6.8295
7.02798
7.2227
7.41365
7.60079
7.78411
7.96353
8.13903
8.31031
8.47795
8.63828
8.80449
8.92007
-7.54186
-7.54413
-7.55066
-7.55848
-7.56611
-7.57352
-7.58073
-7.58766
-7.5942
-7.60026
-7.60572
-7.61047
-7.61441
-7.61746
-7.61956
-7.62066
-7.62072
-7.61971
-7.61764
-7.61449
-7.61021
-7.60472
-7.59807
-7.59048
-7.58216
-7.57327
-7.56421
-7.55543
-7.5474
-7.54038
-7.53421
-7.52874
-7.52415
-7.52124
-7.5209
-7.52367
-7.52988
-7.53979
-7.5532
-7.56982
-7.58937
-7.61152
-7.63598
-7.66248
-7.69077
-7.72065
-7.75191
-7.7844
-7.81795
-7.85242
-7.8877
-7.92365
-7.96018
-7.99715
-8.03447
-8.07203
-8.1097
-8.14737
-8.1849
-8.22215
-8.25899
-8.29527
-8.33084
-8.36557
-8.3993
-8.43189
-8.46319
-8.49306
-8.52134
-8.54789
-8.57254
-8.59516
-8.61559
-8.63369
-8.64932
-8.66233
-8.67258
-8.67994
-8.68426
-8.68541
-8.68325
-8.67761
-8.66835
-8.65528
-8.63823
-8.61701
-8.59141
-8.56121
-8.52615
-8.48614
-8.4409
-8.39032
-8.33414
-8.27231
-8.20464
-8.13111
-8.05157
-7.96597
-7.87424
-7.77635
-7.67235
-7.56228
-7.44626
-7.32432
-7.19662
-7.06325
-6.9244
-6.78019
-6.63081
-6.4764
-6.31715
-6.15319
-5.98467
-5.81171
-5.63442
-5.45288
-5.26718
-5.07738
-4.8835
-4.68561
-4.48369
-4.2778
-4.06792
-3.85411
-3.63637
-3.41479
-3.18938
-2.96025
-2.72745
-2.49113
-2.25138
-2.00836
-1.76224
-1.5132
-1.26146
-1.00725
-0.750831
-0.492489
-0.232483
0.0288757
0.29129
0.554431
0.817993
1.08165
1.34511
1.60804
1.87018
2.13122
2.3909
2.64896
2.90517
3.1593
3.41112
3.6604
3.90697
4.15066
4.39131
4.62881
4.86305
5.09395
5.32141
5.5454
5.76586
5.98275
6.196
6.40556
6.61142
6.81355
7.01193
7.20655
7.39738
7.58441
7.76757
7.94678
8.12198
8.29281
8.45985
8.61908
8.78477
8.8951
-7.53975
-7.54336
-7.5502
-7.55749
-7.56473
-7.57191
-7.57898
-7.58585
-7.5924
-7.59852
-7.60407
-7.60895
-7.61305
-7.61628
-7.61856
-7.61983
-7.62006
-7.61921
-7.61726
-7.61421
-7.61001
-7.60467
-7.59835
-7.59129
-7.58375
-7.57602
-7.5684
-7.56103
-7.55403
-7.54758
-7.54175
-7.53678
-7.53319
-7.53173
-7.53302
-7.53748
-7.54529
-7.55658
-7.57118
-7.58884
-7.60928
-7.6322
-7.65731
-7.68434
-7.71306
-7.74327
-7.77477
-7.8074
-7.841
-7.87543
-7.91056
-7.94625
-7.98238
-8.01886
-8.05558
-8.09243
-8.1293
-8.1661
-8.20269
-8.23898
-8.27484
-8.31014
-8.34477
-8.37859
-8.41148
-8.44329
-8.47389
-8.50313
-8.53086
-8.55692
-8.58115
-8.60341
-8.62355
-8.64142
-8.65688
-8.6698
-8.68003
-8.68745
-8.69191
-8.69327
-8.69139
-8.6861
-8.67724
-8.66462
-8.64805
-8.62734
-8.60227
-8.57257
-8.53808
-8.49849
-8.45372
-8.40348
-8.3476
-8.28593
-8.21839
-8.14485
-8.06522
-7.97942
-7.88739
-7.78915
-7.68473
-7.57421
-7.45766
-7.33519
-7.20693
-7.07302
-6.93362
-6.78892
-6.63909
-6.4843
-6.32473
-6.16053
-5.99185
-5.81881
-5.64154
-5.46012
-5.27462
-5.08509
-4.89156
-4.69405
-4.49256
-4.28712
-4.07771
-3.86436
-3.64708
-3.42593
-3.20095
-2.97221
-2.73977
-2.50377
-2.2643
-2.02152
-1.77558
-1.52669
-1.27504
-1.02088
-0.764465
-0.506081
-0.246003
0.015456
0.277987
0.541263
0.804965
1.06877
1.33237
1.59546
1.85773
2.11891
2.37872
2.6369
2.89322
3.14747
3.39938
3.64871
3.8953
4.13898
4.3796
4.61707
4.85125
5.08208
5.30946
5.53337
5.75375
5.97056
6.1837
6.39315
6.59887
6.80086
6.9991
7.19357
7.38425
7.57111
7.75409
7.93305
8.1079
8.27825
8.44465
8.60282
8.76801
8.87378
-7.53173
-7.53606
-7.54269
-7.54984
-7.55716
-7.56446
-7.57166
-7.57867
-7.58542
-7.59177
-7.59759
-7.60276
-7.60716
-7.61068
-7.61323
-7.61477
-7.61524
-7.61463
-7.61292
-7.61012
-7.60625
-7.60143
-7.59583
-7.58968
-7.58313
-7.57636
-7.56953
-7.56282
-7.55636
-7.55039
-7.54526
-7.54138
-7.53918
-7.53919
-7.5419
-7.54766
-7.55663
-7.56886
-7.58421
-7.60248
-7.6234
-7.6467
-7.67211
-7.69939
-7.72833
-7.75872
-7.79039
-7.82314
-7.85683
-7.8913
-7.9264
-7.962
-7.998
-8.03428
-8.07073
-8.10725
-8.14373
-8.18009
-8.2162
-8.25199
-8.28733
-8.32212
-8.35622
-8.38953
-8.42191
-8.45325
-8.48341
-8.51224
-8.5396
-8.56533
-8.58928
-8.61129
-8.63122
-8.64892
-8.66427
-8.67712
-8.68736
-8.69487
-8.6995
-8.7011
-8.69953
-8.69462
-8.68618
-8.67402
-8.65795
-8.63777
-8.61322
-8.58408
-8.55003
-8.51094
-8.46653
-8.41658
-8.3609
-8.29933
-8.23179
-8.15812
-8.07828
-7.99215
-7.8997
-7.80097
-7.69598
-7.58485
-7.46763
-7.34449
-7.21551
-7.08092
-6.94085
-6.79555
-6.64515
-6.48989
-6.32991
-6.1654
-5.99649
-5.82332
-5.64602
-5.46468
-5.27936
-5.09009
-4.89689
-4.69974
-4.49867
-4.29365
-4.0847
-3.87178
-3.65494
-3.4342
-3.20962
-2.98124
-2.74915
-2.51343
-2.27422
-2.03164
-1.78586
-1.53708
-1.28549
-1.03134
-0.774904
-0.516451
-0.256285
0.00529727
0.267961
0.531389
0.795246
1.05922
1.32298
1.58622
1.84864
2.10996
2.36989
2.62819
2.88461
3.13896
3.39094
3.64028
3.88684
4.13047
4.37104
4.60841
4.8425
5.07321
5.30048
5.52426
5.74454
5.96123
6.17423
6.38351
6.58906
6.79087
6.98894
7.18323
7.37373
7.56041
7.74318
7.92185
8.09634
8.26618
8.43195
8.58912
8.75379
8.8557
-7.5163
-7.52073
-7.52743
-7.53516
-7.54306
-7.55075
-7.55824
-7.56551
-7.57254
-7.57922
-7.58543
-7.59099
-7.59577
-7.59965
-7.60257
-7.60448
-7.60532
-7.60511
-7.60384
-7.60154
-7.59828
-7.59416
-7.5893
-7.58386
-7.578
-7.57184
-7.56554
-7.55929
-7.55336
-7.5481
-7.54384
-7.54095
-7.53989
-7.54113
-7.54504
-7.55191
-7.56185
-7.57487
-7.59084
-7.60959
-7.63087
-7.65445
-7.68009
-7.70759
-7.73674
-7.76735
-7.79923
-7.83219
-7.86606
-7.90069
-7.93594
-7.97168
-8.00779
-8.04415
-8.08065
-8.11716
-8.15358
-8.18982
-8.22578
-8.26137
-8.29649
-8.33103
-8.36489
-8.39795
-8.4301
-8.4612
-8.49113
-8.51973
-8.54687
-8.57239
-8.59613
-8.61795
-8.6377
-8.65525
-8.67047
-8.68324
-8.69347
-8.70105
-8.70583
-8.70768
-8.70644
-8.70193
-8.69394
-8.68227
-8.66672
-8.64706
-8.62307
-8.59443
-8.5609
-8.52219
-8.47811
-8.4284
-8.37283
-8.31128
-8.24364
-8.1698
-8.08964
-8.00309
-7.91014
-7.8108
-7.70516
-7.5933
-7.47533
-7.3514
-7.22165
-7.08628
-6.94549
-6.79949
-6.6485
-6.49271
-6.33232
-6.16747
-5.99831
-5.82499
-5.64766
-5.46641
-5.28127
-5.09225
-4.89937
-4.7026
-4.50195
-4.29737
-4.08887
-3.87641
-3.66002
-3.4397
-3.21553
-2.98753
-2.75578
-2.52037
-2.28142
-2.03905
-1.79343
-1.54476
-1.29323
-1.03909
-0.782619
-0.524095
-0.263823
-0.00211467
0.260696
0.524282
0.788305
1.05244
1.31637
1.57977
1.84234
2.10378
2.36383
2.62223
2.87876
3.13323
3.3853
3.63462
3.88112
4.12466
4.36513
4.60238
4.83634
5.06691
5.29403
5.51766
5.73782
5.95438
6.1672
6.37626
6.58161
6.78322
6.98108
7.17517
7.36548
7.55197
7.73451
7.91288
8.08698
8.2563
8.42145
8.57767
8.74179
8.84052
-7.49299
-7.49722
-7.50463
-7.51355
-7.52231
-7.53047
-7.53823
-7.5458
-7.55325
-7.56046
-7.56723
-7.57333
-7.57861
-7.58297
-7.58637
-7.58877
-7.59016
-7.59051
-7.58984
-7.58817
-7.58556
-7.5821
-7.57788
-7.57301
-7.56763
-7.5619
-7.55602
-7.55027
-7.54492
-7.5403
-7.53677
-7.53478
-7.53475
-7.53708
-7.54207
-7.54993
-7.56073
-7.57446
-7.591
-7.61017
-7.63179
-7.65565
-7.68155
-7.70932
-7.73875
-7.76967
-7.80189
-7.8352
-7.86942
-7.9044
-7.93998
-7.97604
-8.01243
-8.04904
-8.08575
-8.12243
-8.15901
-8.19535
-8.23139
-8.26701
-8.30212
-8.33662
-8.37043
-8.40344
-8.43552
-8.46655
-8.49639
-8.5249
-8.55189
-8.5772
-8.60067
-8.62218
-8.64163
-8.6589
-8.67387
-8.68644
-8.69657
-8.70417
-8.70911
-8.71125
-8.71041
-8.70637
-8.6989
-8.68777
-8.67277
-8.65368
-8.63022
-8.60213
-8.56902
-8.53073
-8.48688
-8.43731
-8.38178
-8.32023
-8.25246
-8.17841
-8.09793
-8.01094
-7.91744
-7.81746
-7.71113
-7.5985
-7.47976
-7.355
-7.22446
-7.08829
-6.94676
-6.80006
-6.64847
-6.49216
-6.33137
-6.16621
-5.99685
-5.8234
-5.64607
-5.46492
-5.27997
-5.09123
-4.89867
-4.70232
-4.50211
-4.29804
-4.09003
-3.8781
-3.66219
-3.44238
-3.21867
-2.99111
-2.75974
-2.52468
-2.28602
-2.0439
-1.79848
-1.54994
-1.29848
-1.04438
-0.787904
-0.529335
-0.268977
-0.00716663
0.255771
0.519487
0.783653
1.04793
1.31199
1.57551
1.8382
2.09974
2.35987
2.61833
2.87494
3.12959
3.3818
3.63111
3.87751
4.12094
4.36127
4.59838
4.83218
5.06258
5.28952
5.513
5.73305
5.94952
6.16215
6.37097
6.57608
6.77746
6.9751
7.16899
7.35909
7.5454
7.72772
7.90578
8.07946
8.24826
8.4128
8.56814
8.73165
8.8279
-7.46268
-7.46705
-7.4757
-7.48613
-7.4958
-7.50439
-7.51257
-7.52063
-7.52856
-7.53636
-7.5439
-7.55084
-7.5568
-7.56166
-7.56557
-7.56857
-7.5706
-7.57162
-7.57162
-7.57062
-7.56864
-7.56575
-7.56201
-7.55756
-7.55254
-7.54717
-7.54165
-7.53628
-7.53136
-7.52731
-7.5245
-7.52337
-7.52427
-7.52757
-7.53349
-7.5422
-7.55372
-7.56804
-7.58506
-7.60465
-7.62663
-7.65083
-7.67707
-7.70517
-7.73496
-7.76625
-7.79885
-7.83256
-7.86721
-7.90262
-7.93864
-7.97513
-8.01193
-8.0489
-8.08594
-8.12294
-8.15978
-8.19636
-8.23259
-8.26836
-8.30358
-8.33816
-8.37199
-8.40498
-8.43701
-8.46794
-8.49763
-8.52591
-8.55258
-8.57745
-8.6004
-8.62138
-8.64035
-8.65721
-8.67175
-8.68393
-8.6938
-8.70135
-8.70649
-8.70905
-8.70879
-8.70543
-8.69865
-8.68818
-8.6738
-8.6553
-8.6324
-8.60486
-8.57228
-8.53433
-8.49072
-8.44119
-8.38569
-8.3241
-8.25626
-8.18201
-8.10122
-8.01379
-7.9197
-7.81906
-7.71196
-7.59854
-7.47895
-7.35337
-7.22196
-7.08495
-6.94259
-6.79517
-6.64293
-6.48609
-6.32488
-6.15945
-5.98994
-5.81647
-5.63914
-5.45804
-5.27322
-5.08469
-4.89247
-4.69652
-4.4968
-4.29327
-4.08585
-3.87454
-3.65927
-3.44007
-3.21693
-2.98989
-2.75902
-2.5244
-2.28614
-2.04437
-1.79924
-1.55092
-1.29965
-1.04569
-0.789311
-0.530799
-0.270475
-0.00867484
0.254263
0.51799
0.782166
1.04645
1.31051
1.57402
1.83667
2.09816
2.35821
2.61656
2.87304
3.12769
3.37995
3.6292
3.87548
4.11876
4.35892
4.59586
4.82946
5.05967
5.28641
5.50971
5.72969
5.94615
6.15864
6.36723
6.57209
6.77325
6.97067
7.16435
7.35427
7.54043
7.72258
7.90034
8.0736
8.24188
8.40584
8.56032
8.72317
8.8176
-7.42786
-7.43294
-7.44329
-7.45555
-7.46621
-7.47503
-7.48323
-7.49168
-7.50038
-7.50903
-7.51741
-7.52525
-7.53201
-7.53744
-7.54186
-7.54546
-7.54816
-7.54988
-7.55057
-7.55019
-7.54875
-7.5463
-7.54293
-7.53879
-7.534
-7.52882
-7.5235
-7.5184
-7.51386
-7.51031
-7.50812
-7.5077
-7.50938
-7.51343
-7.52005
-7.52936
-7.5414
-7.55615
-7.57352
-7.59343
-7.6157
-7.6402
-7.66675
-7.69519
-7.72534
-7.75701
-7.79
-7.82413
-7.85922
-7.89509
-7.93159
-7.96853
-8.00577
-8.04318
-8.08062
-8.11796
-8.15509
-8.19188
-8.22823
-8.26405
-8.29923
-8.33369
-8.36734
-8.40008
-8.43179
-8.46237
-8.49164
-8.51941
-8.54547
-8.56954
-8.59152
-8.61152
-8.62976
-8.64613
-8.66019
-8.67174
-8.68101
-8.68821
-8.69345
-8.69654
-8.69708
-8.69464
-8.68879
-8.67919
-8.66559
-8.64789
-8.62597
-8.59935
-8.56777
-8.53076
-8.488
-8.43914
-8.38408
-8.3227
-8.2549
-8.18052
-8.09942
-8.01152
-7.91679
-7.81539
-7.70741
-7.59306
-7.47246
-7.34586
-7.21339
-7.07536
-6.93199
-6.78365
-6.63057
-6.47303
-6.31121
-6.14533
-5.97553
-5.80189
-5.62445
-5.44331
-5.25856
-5.07021
-4.87827
-4.68269
-4.48345
-4.28044
-4.07364
-3.86294
-3.64835
-3.42979
-3.20728
-2.98082
-2.7505
-2.51638
-2.27858
-2.03721
-1.79242
-1.5444
-1.29341
-1.03967
-0.783473
-0.525099
-0.264894
-0.00318893
0.259659
0.523305
0.787393
1.05158
1.31553
1.57891
1.84139
2.10268
2.36246
2.62046
2.87642
3.13012
3.38143
3.63014
3.87607
4.11901
4.35884
4.59543
4.82869
5.05852
5.28489
5.50778
5.72748
5.94378
6.15611
6.36448
6.5691
6.77003
6.96725
7.16074
7.35049
7.53655
7.71863
7.89617
8.06907
8.23686
8.40026
8.55395
8.71609
8.80933
-7.39074
-7.39681
-7.40931
-7.42336
-7.43426
-7.44298
-7.45165
-7.46074
-7.47002
-7.4793
-7.48844
-7.49713
-7.50475
-7.51096
-7.51612
-7.52053
-7.52406
-7.5266
-7.52804
-7.52832
-7.52742
-7.52539
-7.52229
-7.51829
-7.51358
-7.50845
-7.50318
-7.49816
-7.49376
-7.49042
-7.48851
-7.48841
-7.49038
-7.49473
-7.50158
-7.51108
-7.52325
-7.53809
-7.55553
-7.57551
-7.59789
-7.62255
-7.64934
-7.67809
-7.70859
-7.74065
-7.77406
-7.80863
-7.8442
-7.88055
-7.91752
-7.95491
-7.99258
-8.03033
-8.06805
-8.10556
-8.14277
-8.17951
-8.21571
-8.25125
-8.28607
-8.32008
-8.3532
-8.38535
-8.41644
-8.44637
-8.475
-8.50213
-8.52744
-8.55039
-8.57068
-8.58871
-8.60542
-8.6213
-8.63586
-8.6484
-8.65856
-8.66636
-8.67212
-8.67563
-8.67672
-8.67485
-8.6697
-8.66067
-8.64774
-8.63081
-8.60968
-8.58404
-8.55339
-8.51738
-8.4756
-8.42767
-8.3733
-8.31237
-8.24478
-8.17042
-8.08918
-8.00094
-7.90576
-7.80373
-7.69504
-7.57985
-7.45837
-7.33081
-7.19739
-7.05838
-6.91411
-6.76489
-6.61103
-6.45278
-6.29038
-6.124
-5.95381