/*--------------------------------*- C++ -*----------------------------------*\
  =========                 |
  \\      /  F ield         | OpenFOAM: The Open Source CFD Toolbox
   \\    /   O peration     | Website:  https://openfoam.org
    \\  /    A nd           | Version:  13
     \\/     M anipulation  |
\*---------------------------------------------------------------------------*/
FoamFile
{
    format      ascii;
    class       surfaceScalarField;
    location    "600";
    object      phi;
}
// * * * * * * * * * * * * * * * * * * * * * * * * * * * * * * * * * * * * * //

dimensions      [0 3 -1 0 0 0 0];

internalField   nonuniform List<scalar> 
24170
(
3.04128e-06
1.47141e-07
2.87789e-06
1.63451e-07
2.72902e-06
1.48852e-07
2.59565e-06
1.33399e-07
2.477e-06
1.18686e-07
2.37729e-06
9.97266e-08
2.29257e-06
8.47607e-08
2.22018e-06
7.24246e-08
2.15911e-06
6.10626e-08
2.10758e-06
5.15262e-08
2.0665e-06
4.10854e-08
2.03371e-06
3.27752e-08
2.00838e-06
2.53251e-08
1.99097e-06
1.74011e-08
1.97962e-06
1.13503e-08
1.97308e-06
6.51912e-09
1.97188e-06
1.1488e-09
-5.06954e-09
1.97689e-06
3.49631e-06
6.80833e-08
3.54384e-06
1.1587e-07
3.57208e-06
1.20524e-07
3.58233e-06
1.23139e-07
3.5778e-06
1.23186e-07
3.56265e-06
1.14875e-07
3.53731e-06
1.10106e-07
3.50638e-06
1.03357e-07
3.47599e-06
9.14404e-08
3.44594e-06
8.15785e-08
3.41337e-06
7.3646e-08
3.37936e-06
6.67861e-08
3.34678e-06
5.79025e-08
3.3161e-06
4.8075e-08
3.28735e-06
4.01011e-08
3.26086e-06
3.30027e-08
3.23601e-06
2.59594e-08
1.97771e-08
3.21113e-06
3.6795e-06
5.11136e-08
3.69476e-06
1.00684e-07
3.71217e-06
1.03106e-07
3.73084e-06
1.0447e-07
3.74937e-06
1.0467e-07
3.76483e-06
9.94225e-08
3.77886e-06
9.60987e-08
3.79099e-06
9.12434e-08
3.7995e-06
8.2922e-08
3.80533e-06
7.57355e-08
3.80924e-06
6.97347e-08
3.81186e-06
6.41448e-08
3.81248e-06
5.72786e-08
3.81081e-06
4.97456e-08
3.8077e-06
4.32106e-08
3.80348e-06
3.72071e-08
3.79785e-06
3.15506e-08
2.61059e-08
3.7915e-06
3.93634e-06
4.01693e-08
3.94792e-06
8.90846e-08
3.95506e-06
9.58961e-08
3.96185e-06
9.76483e-08
3.96887e-06
9.76226e-08
3.9749e-06
9.33861e-08
3.98161e-06
8.93901e-08
3.9888e-06
8.40489e-08
3.99508e-06
7.66348e-08
4.00086e-06
6.99558e-08
4.00656e-06
6.40313e-08
4.01236e-06
5.83451e-08
4.01761e-06
5.20286e-08
4.02193e-06
4.54264e-08
4.02572e-06
3.9432e-08
4.029e-06
3.39103e-08
4.03166e-06
2.88682e-08
2.41109e-08
4.03364e-06
4.21264e-06
3.46615e-08
4.2251e-06
7.66969e-08
4.23271e-06
8.82727e-08
4.23926e-06
9.10921e-08
4.24547e-06
9.14288e-08
4.25043e-06
8.84176e-08
4.2553e-06
8.45431e-08
4.26007e-06
7.92813e-08
4.26403e-06
7.26677e-08
4.26757e-06
6.64053e-08
4.27104e-06
6.05495e-08
4.27457e-06
5.48099e-08
4.2778e-06
4.87935e-08
4.28053e-06
4.2694e-08
4.28296e-06
3.69991e-08
4.28515e-06
3.17166e-08
4.28709e-06
2.68966e-08
2.22542e-08
4.28894e-06
4.51275e-06
3.10063e-08
4.5236e-06
6.58401e-08
4.5315e-06
8.03395e-08
4.5383e-06
8.42718e-08
4.5447e-06
8.50088e-08
4.55018e-06
8.29367e-08
4.55531e-06
7.94157e-08
4.56008e-06
7.45131e-08
4.5641e-06
6.8642e-08
4.56765e-06
6.28531e-08
4.57097e-06
5.72262e-08
4.57415e-06
5.1635e-08
4.577e-06
4.59417e-08
4.57943e-06
4.02753e-08
4.58153e-06
3.49027e-08
4.58336e-06
2.98756e-08
4.58498e-06
2.52641e-08
2.07492e-08
4.58647e-06
4.83612e-06
2.76078e-08
4.84453e-06
5.74816e-08
4.85246e-06
7.24133e-08
4.85938e-06
7.73505e-08
4.86582e-06
7.85762e-08
4.87157e-06
7.71891e-08
4.87692e-06
7.40809e-08
4.88181e-06
6.9623e-08
4.88607e-06
6.43758e-08
4.88988e-06
5.90382e-08
4.89339e-06
5.37117e-08
4.89664e-06
4.83745e-08
4.89956e-06
4.30249e-08
4.90207e-06
3.77595e-08
4.90424e-06
3.27343e-08
4.90611e-06
2.80065e-08
4.90772e-06
2.3629e-08
1.93617e-08
4.90911e-06
5.18315e-06
2.40402e-08
5.19026e-06
5.03674e-08
5.1978e-06
6.48527e-08
5.20467e-06
7.04657e-08
5.21111e-06
7.21291e-08
5.217e-06
7.12986e-08
5.22246e-06
6.86199e-08
5.22745e-06
6.46372e-08
5.23188e-06
5.99413e-08
5.23588e-06
5.50379e-08
5.23954e-06
5.00505e-08
5.24289e-06
4.50315e-08
5.24588e-06
4.00345e-08
5.2485e-06
3.51464e-08
5.25077e-06
3.04687e-08
5.25272e-06
2.60523e-08
5.25439e-06
2.19565e-08
1.79912e-08
5.25576e-06
5.55575e-06
1.96339e-08
5.56148e-06
4.4671e-08
5.56852e-06
5.78234e-08
5.57531e-06
6.36713e-08
5.58176e-06
6.56815e-08
5.58777e-06
6.52924e-08
5.59335e-06
6.30505e-08
5.59845e-06
5.95379e-08
5.60306e-06
5.53365e-08
5.60724e-06
5.0853e-08
5.61105e-06
4.62341e-08
5.61451e-06
4.15663e-08
5.61762e-06
3.69339e-08
5.62035e-06
3.2415e-08
5.62273e-06
2.80879e-08
5.62478e-06
2.40009e-08
5.62653e-06
2.01977e-08
1.65743e-08
5.62796e-06
5.95357e-06
1.58397e-08
5.95913e-06
3.91056e-08
5.96583e-06
5.1095e-08
5.97255e-06
5.69417e-08
5.97904e-06
5.91815e-08
5.98519e-06
5.91353e-08
5.99093e-06
5.73141e-08
5.9962e-06
5.42679e-08
6.001e-06
5.05355e-08
6.00538e-06
4.64721e-08
6.00938e-06
4.22395e-08
6.013e-06
3.79492e-08
6.01624e-06
3.36909e-08
6.01912e-06
2.95446e-08
6.02163e-06
2.55754e-08
6.0238e-06
2.18266e-08
6.02566e-06
1.8345e-08
1.50624e-08
6.02718e-06
6.37978e-06
1.28672e-08
6.38517e-06
3.37442e-08
6.3916e-06
4.46638e-08
6.39821e-06
5.03367e-08
6.40471e-06
5.26754e-08
6.41097e-06
5.28724e-08
6.41687e-06
5.14184e-08
6.42233e-06
4.88108e-08
6.42735e-06
4.55234e-08
6.43194e-06
4.18755e-08
6.43614e-06
3.80447e-08
6.43994e-06
3.41447e-08
6.44336e-06
3.0274e-08
6.4464e-06
2.65066e-08
6.44908e-06
2.29039e-08
6.4514e-06
1.95079e-08
6.45339e-06
1.63537e-08
1.34193e-08
6.45503e-06
5.74284e-06
1.0864e-08
5.7471e-06
2.94872e-08
5.75231e-06
3.94469e-08
5.75779e-06
4.48552e-08
5.76325e-06
4.72047e-08
5.76858e-06
4.75433e-08
5.77365e-06
4.63509e-08
5.77839e-06
4.40743e-08
5.78277e-06
4.11389e-08
5.78681e-06
3.78377e-08
5.79051e-06
3.43442e-08
5.79387e-06
3.0781e-08
5.7969e-06
2.72413e-08
5.79961e-06
2.37995e-08
5.80201e-06
2.05106e-08
5.8041e-06
1.74156e-08
5.80591e-06
1.45494e-08
1.19042e-08
5.80743e-06
7.00007e-06
8.95226e-09
7.00462e-06
2.49476e-08
7.01029e-06
3.37732e-08
7.01638e-06
3.87671e-08
7.02256e-06
4.10253e-08
7.02865e-06
4.14534e-08
7.0345e-06
4.05004e-08
7.04001e-06
3.85596e-08
7.04516e-06
3.59961e-08
7.04992e-06
3.30733e-08
7.0543e-06
2.99635e-08
7.0583e-06
2.6782e-08
7.06192e-06
2.36229e-08
7.06517e-06
2.05516e-08
7.06806e-06
1.76241e-08
7.07061e-06
1.48747e-08
7.07283e-06
1.23355e-08
1.00111e-08
7.07472e-06
8.53267e-06
7.13118e-09
8.5374e-06
2.02357e-08
8.54347e-06
2.77064e-08
8.55013e-06
3.21059e-08
8.557e-06
3.41537e-08
8.56386e-06
3.45987e-08
8.57052e-06
3.38446e-08
8.57685e-06
3.22271e-08
8.5828e-06
3.00437e-08
8.58835e-06
2.75306e-08
8.59347e-06
2.4838e-08
8.59817e-06
2.20845e-08
8.60245e-06
1.93467e-08
8.60632e-06
1.66927e-08
8.60978e-06
1.41666e-08
8.61285e-06
1.18035e-08
8.61556e-06
9.62718e-09
7.65528e-09
8.61793e-06
1.0401e-05
5.37822e-09
1.04058e-05
1.54506e-08
1.04122e-05
2.13277e-08
1.04194e-05
2.49089e-08
1.04269e-05
2.66068e-08
1.04345e-05
2.69731e-08
1.0442e-05
2.63636e-08
1.04492e-05
2.50379e-08
1.0456e-05
2.32393e-08
1.04624e-05
2.11489e-08
1.04683e-05
1.89128e-08
1.04738e-05
1.66191e-08
1.04788e-05
1.43471e-08
1.04833e-05
1.21482e-08
1.04874e-05
1.0062e-08
1.04911e-05
8.12189e-09
1.04944e-05
6.33926e-09
4.74338e-09
1.04973e-05
1.26785e-05
3.66383e-09
1.26833e-05
1.06508e-08
1.269e-05
1.4689e-08
1.26977e-05
1.72112e-08
1.27059e-05
1.83776e-08
1.27143e-05
1.85578e-08
1.27227e-05
1.80121e-08
1.27308e-05
1.69391e-08
1.27385e-05
1.5506e-08
1.27458e-05
1.38577e-08
1.27526e-05
1.20955e-08
1.27589e-05
1.03009e-08
1.27648e-05
8.52878e-09
1.27701e-05
6.82223e-09
1.27749e-05
5.21546e-09
1.27793e-05
3.72627e-09
1.27833e-05
2.37437e-09
1.17052e-09
1.27868e-05
1.54549e-05
1.95557e-09
1.54598e-05
5.77859e-09
1.54667e-05
7.75794e-09
1.5475e-05
8.9662e-09
1.54839e-05
9.40519e-09
1.54932e-05
9.26391e-09
1.55025e-05
8.69461e-09
1.55117e-05
7.81682e-09
1.55204e-05
6.73075e-09
1.55288e-05
5.52249e-09
1.55366e-05
4.25913e-09
1.55439e-05
2.99059e-09
1.55507e-05
1.75441e-09
1.55569e-05
5.78403e-10
1.55627e-05
-5.15721e-10
1.55679e-05
-1.51511e-09
1.55727e-05
-2.41134e-09
-3.18861e-09
1.5577e-05
1.88394e-05
1.712e-10
1.88446e-05
6.41488e-10
1.8852e-05
2.89947e-10
1.88611e-05
-7.5674e-11
1.88711e-05
-5.66743e-10
1.88815e-05
-1.16385e-09
1.8892e-05
-1.84171e-09
1.89024e-05
-2.5704e-09
1.89125e-05
-3.32482e-09
1.89221e-05
-4.08071e-09
1.89311e-05
-4.81941e-09
1.89397e-05
-5.52409e-09
1.89476e-05
-6.18246e-09
1.8955e-05
-6.78365e-09
1.89617e-05
-7.32132e-09
1.8968e-05
-7.78939e-09
1.89738e-05
-8.18894e-09
-8.50409e-09
1.89791e-05
2.29654e-05
-1.87862e-09
2.29713e-05
-5.29076e-09
2.298e-05
-8.39865e-09
2.29906e-05
-1.06317e-08
2.30022e-05
-1.22381e-08
2.30145e-05
-1.33903e-08
2.30268e-05
-1.42184e-08
2.30391e-05
-1.47887e-08
2.30509e-05
-1.51723e-08
2.30622e-05
-1.54152e-08
2.3073e-05
-1.55594e-08
2.30831e-05
-1.56267e-08
2.30925e-05
-1.56327e-08
2.31013e-05
-1.5589e-08
2.31095e-05
-1.55003e-08
2.31171e-05
-1.53749e-08
2.31241e-05
-1.52159e-08
-1.50164e-08
2.31306e-05
1.68124e-05
-3.58165e-09
1.68172e-05
-1.00867e-08
1.68241e-05
-1.53095e-08
1.68323e-05
-1.88679e-08
1.68413e-05
-2.11944e-08
1.68506e-05
-2.26841e-08
1.68599e-05
-2.35401e-08
1.68691e-05
-2.39341e-08
1.68779e-05
-2.39784e-08
1.68863e-05
-2.38021e-08
1.68942e-05
-2.34733e-08
1.69016e-05
-2.30508e-08
1.69085e-05
-2.25663e-08
1.6915e-05
-2.20425e-08
1.6921e-05
-2.15003e-08
1.69266e-05
-2.09424e-08
1.69317e-05
-2.0387e-08
-1.9815e-08
1.69365e-05
1.46364e-05
-5.38683e-09
1.46414e-05
-1.50626e-08
1.46483e-05
-2.22636e-08
1.46563e-05
-2.68685e-08
1.46648e-05
-2.97147e-08
1.46735e-05
-3.13802e-08
1.46821e-05
-3.21671e-08
1.46905e-05
-3.22841e-08
1.46985e-05
-3.19524e-08
1.4706e-05
-3.13327e-08
1.47131e-05
-3.05408e-08
1.47197e-05
-2.96455e-08
1.47258e-05
-2.86975e-08
1.47315e-05
-2.77325e-08
1.47368e-05
-2.67723e-08
1.47417e-05
-2.58323e-08
1.47462e-05
-2.49161e-08
-2.40203e-08
1.47504e-05
1.27422e-05
-7.45456e-09
1.27477e-05
-2.05373e-08
1.27549e-05
-2.95181e-08
1.27629e-05
-3.48508e-08
1.27712e-05
-3.79869e-08
1.27795e-05
-3.96984e-08
1.27876e-05
-4.0286e-08
1.27954e-05
-4.00401e-08
1.28027e-05
-3.92613e-08
1.28095e-05
-3.81739e-08
1.28159e-05
-3.69117e-08
1.28218e-05
-3.55548e-08
1.28273e-05
-3.41632e-08
1.28324e-05
-3.27828e-08
1.2837e-05
-3.14401e-08
1.28413e-05
-3.01536e-08
1.28454e-05
-2.89268e-08
-2.77523e-08
1.28491e-05
1.10934e-05
-9.9669e-09
1.10997e-05
-2.67826e-08
1.11074e-05
-3.71938e-08
1.11154e-05
-4.28585e-08
1.11235e-05
-4.60917e-08
1.11315e-05
-4.77152e-08
1.11392e-05
-4.7993e-08
1.11465e-05
-4.73002e-08
1.11532e-05
-4.60279e-08
1.11595e-05
-4.44493e-08
1.11653e-05
-4.27045e-08
1.11707e-05
-4.08853e-08
1.11756e-05
-3.90595e-08
1.11801e-05
-3.72778e-08
1.11842e-05
-3.55768e-08
1.1188e-05
-3.3964e-08
1.11915e-05
-3.24495e-08
-3.1011e-08
1.11948e-05
9.65841e-06
-1.31621e-08
9.66567e-06
-3.40378e-08
9.67373e-06
-4.52427e-08
9.68177e-06
-5.08964e-08
9.68976e-06
-5.40855e-08
9.69751e-06
-5.54555e-08
9.70482e-06
-5.53087e-08
9.71163e-06
-5.41109e-08
9.71794e-06
-5.23361e-08
9.72375e-06
-5.0261e-08
9.72908e-06
-4.8031e-08
9.73395e-06
-4.57508e-08
9.73839e-06
-4.34955e-08
9.74244e-06
-4.13281e-08
9.74616e-06
-3.92842e-08
9.74957e-06
-3.73751e-08
9.75271e-06
-3.55861e-08
-3.3888e-08
9.75559e-06
8.40951e-06
-1.73226e-08
8.41802e-06
-4.25353e-08
8.42636e-06
-5.35886e-08
8.4344e-06
-5.89263e-08
8.44235e-06
-6.20323e-08
8.44993e-06
-6.30442e-08
8.45695e-06
-6.2321e-08
8.46337e-06
-6.05308e-08
8.46927e-06
-5.82413e-08
8.4747e-06
-5.56934e-08
8.47966e-06
-5.29881e-08
8.48416e-06
-5.02481e-08
8.48823e-06
-4.75651e-08
8.49192e-06
-4.50188e-08
8.49529e-06
-4.26515e-08
8.49839e-06
-4.04648e-08
8.50125e-06
-3.84446e-08
-3.65358e-08
8.5039e-06
7.32285e-06
-2.2883e-08
7.33279e-06
-5.24781e-08
7.3415e-06
-6.22937e-08
7.34966e-06
-6.70763e-08
7.35769e-06
-7.00647e-08
7.36535e-06
-7.07007e-08
7.37234e-06
-6.93146e-08
7.37865e-06
-6.68419e-08
7.38438e-06
-6.39782e-08
7.38962e-06
-6.09318e-08
7.39439e-06
-5.77552e-08
7.39868e-06
-5.45427e-08
7.40253e-06
-5.14091e-08
7.40598e-06
-4.8469e-08
7.40909e-06
-4.57654e-08
7.41191e-06
-4.32797e-08
7.4145e-06
-4.10327e-08
-3.90249e-08
7.41699e-06
6.37834e-06
-3.11617e-08
6.38991e-06
-6.40437e-08
6.39973e-06
-7.21056e-08
6.40894e-06
-7.63035e-08
6.41777e-06
-7.8883e-08
6.42617e-06
-7.90979e-08
6.43381e-06
-7.69551e-08
6.44069e-06
-7.37242e-08
6.44684e-06
-7.01323e-08
6.45229e-06
-6.63837e-08
6.45713e-06
-6.25974e-08
6.46137e-06
-5.87835e-08
6.46505e-06
-5.50891e-08
6.46825e-06
-5.16615e-08
6.471e-06
-4.85248e-08
6.47339e-06
-4.56622e-08
6.47541e-06
-4.30577e-08
-4.07633e-08
6.47716e-06
5.5613e-06
-4.70018e-08
5.57723e-06
-7.9962e-08
5.59157e-06
-8.64589e-08
5.60541e-06
-9.01512e-08
5.61805e-06
-9.15121e-08
5.62929e-06
-9.03351e-08
5.63888e-06
-8.65424e-08
5.64691e-06
-8.1755e-08
5.65339e-06
-7.66225e-08
5.65835e-06
-7.13443e-08
5.66195e-06
-6.61925e-08
5.66429e-06
-6.11255e-08
5.66554e-06
-5.63451e-08
5.66589e-06
-5.20091e-08
5.66545e-06
-4.80906e-08
5.66441e-06
-4.46206e-08
5.66289e-06
-4.1532e-08
-3.89956e-08
5.66112e-06
4.87882e-06
-9.82151e-08
4.91394e-06
-1.15078e-07
4.93992e-06
-1.12439e-07
4.95719e-06
-1.07442e-07
4.96598e-06
-1.00283e-07
4.96737e-06
-9.173e-08
4.96293e-06
-8.21035e-08
4.95399e-06
-7.28177e-08
4.94164e-06
-6.42754e-08
4.92678e-06
-5.64834e-08
4.91015e-06
-4.95627e-08
4.89233e-06
-4.33032e-08
4.87376e-06
-3.77766e-08
4.85479e-06
-3.30428e-08
4.83579e-06
-2.90974e-08
4.81719e-06
-2.60219e-08
4.79914e-06
-2.34799e-08
-2.17726e-08
4.78192e-06
4.10446e-06
3.98938e-06
3.87694e-06
3.7695e-06
3.66922e-06
3.57749e-06
3.49538e-06
3.42257e-06
3.35829e-06
3.30181e-06
3.25224e-06
3.20894e-06
3.17116e-06
3.13812e-06
3.10902e-06
3.083e-06
3.05952e-06
3.03775e-06
-8.07744e-09
8.05362e-09
-2.23477e-08
1.4183e-08
-3.77134e-08
1.53422e-08
-5.10369e-08
1.32387e-08
-5.72473e-08
6.21343e-09
-5.05632e-08
-6.79031e-09
-2.85125e-08
-2.19964e-08
6.35432e-09
-3.49767e-08
5.03862e-08
-4.39521e-08
9.84809e-08
-4.81878e-08
1.46491e-07
-4.79328e-08
1.90997e-07
-4.45815e-08
2.30272e-07
-3.92102e-08
2.6283e-07
-3.26176e-08
2.88205e-07
-2.53212e-08
3.05788e-07
-1.76304e-08
3.15506e-07
-9.66844e-09
3.16868e-07
-1.40091e-09
3.09861e-07
7.04969e-09
2.94529e-07
1.52974e-08
2.71628e-07
2.29425e-08
2.41996e-07
2.95958e-08
2.0717e-07
3.48631e-08
1.68858e-07
3.82772e-08
1.29491e-07
3.93991e-08
9.1563e-08
3.79047e-08
5.7818e-08
3.37848e-08
3.02587e-08
2.75532e-08
9.98262e-09
2.03216e-08
-3.40994e-09
1.34011e-08
-1.08206e-08
7.46063e-09
-1.2863e-08
2.04794e-09
-9.25087e-09
-3.57053e-09
1.11345e-09
-1.03753e-08
2.00043e-08
-1.88619e-08
4.78713e-08
-2.78873e-08
8.16639e-08
-3.37832e-08
1.15215e-07
-3.35651e-08
1.42868e-07
-2.76519e-08
1.61178e-07
-1.83131e-08
1.69701e-07
-8.52203e-09
1.70806e-07
-1.09963e-09
1.67708e-07
3.10144e-09
1.63521e-07
4.19537e-09
1.60639e-07
2.88773e-09
1.55983e-07
4.65988e-09
1.41412e-07
1.45766e-08
1.09668e-07
3.17406e-08
5.40059e-08
5.56553e-08
-2.62103e-08
8.02027e-08
-1.2588e-07
9.96482e-08
-2.41813e-07
1.15908e-07
-3.70935e-07
1.29098e-07
-5.08887e-07
1.37919e-07
-6.50911e-07
1.41994e-07
-7.93674e-07
1.42735e-07
-9.34162e-07
1.40458e-07
-1.06944e-06
1.35257e-07
-1.19731e-06
1.27844e-07
-1.31648e-06
1.19154e-07
-1.42698e-06
1.10477e-07
-1.52841e-06
1.01422e-07
-1.62084e-06
9.24051e-08
-1.7055e-06
8.46575e-08
-1.78339e-06
7.78698e-08
-1.85504e-06
7.16555e-08
-1.92122e-06
6.61735e-08
-1.98259e-06
6.13632e-08
-2.03977e-06
5.71804e-08
-2.0933e-06
5.35339e-08
-2.14362e-06
5.03257e-08
-2.19111e-06
4.75017e-08
-2.23609e-06
4.49819e-08
-2.2788e-06
4.27192e-08
-2.31945e-06
4.06583e-08
-2.3582e-06
3.87652e-08
-2.3952e-06
3.70006e-08
-2.43053e-06
3.53425e-08
-2.46428e-06
3.37627e-08
-2.49651e-06
3.2248e-08
-2.52728e-06
3.07785e-08
-2.55662e-06
2.93472e-08
-2.58455e-06
2.79407e-08
-2.6111e-06
2.65527e-08
-2.63628e-06
2.51755e-08
-2.66009e-06
2.3802e-08
-2.68253e-06
2.24267e-08
-2.7036e-06
2.10447e-08
-2.72333e-06
1.96465e-08
-2.74168e-06
1.82251e-08
-2.75857e-06
1.67737e-08
-2.77393e-06
1.52916e-08
-2.78774e-06
1.37728e-08
-2.79997e-06
1.22203e-08
-2.81059e-06
1.06298e-08
-2.81957e-06
8.9929e-09
-2.82687e-06
7.30806e-09
-2.83243e-06
5.55909e-09
-2.83619e-06
3.75436e-09
-2.83813e-06
1.89881e-09
-2.83826e-06
1.00122e-10
-2.83686e-06
-1.47082e-09
-2.83408e-06
-2.83394e-09
-2.82999e-06
-4.14789e-09
-2.82459e-06
-5.43657e-09
-2.8179e-06
-6.71217e-09
-2.80993e-06
-7.98581e-09
-2.80067e-06
-9.2453e-09
-2.79017e-06
-1.05063e-08
-2.77839e-06
-1.17476e-08
-2.7654e-06
-1.29911e-08
-2.75116e-06
-1.42116e-08
-2.73572e-06
-1.54347e-08
-2.71907e-06
-1.66333e-08
-2.70124e-06
-1.78336e-08
-2.68222e-06
-1.90085e-08
-2.66206e-06
-2.01832e-08
-2.64073e-06
-2.13372e-08
-2.61828e-06
-2.2496e-08
-2.59467e-06
-2.36449e-08
-2.56991e-06
-2.47974e-08
-2.54398e-06
-2.59427e-08
-2.51692e-06
-2.70842e-08
-2.48872e-06
-2.82199e-08
-2.4594e-06
-2.93485e-08
-2.42897e-06
-3.04743e-08
-2.39743e-06
-3.15888e-08
-2.36477e-06
-3.2703e-08
-2.33101e-06
-3.38024e-08
-2.29615e-06
-3.49016e-08
-2.2602e-06
-3.59753e-08
-2.22319e-06
-3.70421e-08
-2.18512e-06
-3.80811e-08
-2.14603e-06
-3.90997e-08
-2.10595e-06
-4.00706e-08
-2.06496e-06
-4.09882e-08
-2.0231e-06
-4.184e-08
-1.98045e-06
-4.26595e-08
-1.93687e-06
-4.35926e-08
-1.89236e-06
-4.45566e-08
-1.84701e-06
-4.54116e-08
-1.80087e-06
-4.62159e-08
-1.75397e-06
-4.69707e-08
-1.70636e-06
-4.76774e-08
-1.65809e-06
-4.83379e-08
-1.60922e-06
-4.89508e-08
-1.55977e-06
-4.95165e-08
-1.50981e-06
-5.00386e-08
-1.45938e-06
-5.05096e-08
-1.40852e-06
-5.09416e-08
-1.35727e-06
-5.13226e-08
-1.30569e-06
-5.1659e-08
-1.25381e-06
-5.19489e-08
-1.2017e-06
-5.21903e-08
-1.14939e-06
-5.23833e-08
-1.09694e-06
-5.25351e-08
-1.04436e-06
-5.26461e-08
-9.91701e-07
-5.27258e-08
-9.38984e-07
-5.27781e-08
-8.86233e-07
-5.28116e-08
-8.33455e-07
-5.28296e-08
-7.80664e-07
-5.28401e-08
-7.27863e-07
-5.28439e-08
-6.75056e-07
-5.2845e-08
-6.22249e-07
-5.28406e-08
-5.69443e-07
-5.28326e-08
-5.16646e-07
-5.28202e-08
-4.63851e-07
-5.28086e-08
-4.11065e-07
-5.27975e-08
-3.58275e-07
-5.27896e-08
-3.05495e-07
-5.27786e-08
-2.52729e-07
-5.27517e-08
-2.0003e-07
-5.26825e-08
-1.47477e-07
-5.25241e-08
-9.52688e-08
-5.21751e-08
-4.38058e-08
-5.14195e-08
6.20434e-09
-4.99618e-08
5.31498e-08
-4.68974e-08
9.67353e-08
-4.35356e-08
-1.99113e-08
1.16674e-07
-3.72545e-09
1.17519e-08
-1.07576e-08
2.10919e-08
-1.4575e-08
1.9159e-08
-8.61666e-09
7.14756e-09
1.28349e-08
-1.52024e-08
4.91308e-08
-4.31619e-08
9.60783e-08
-6.88999e-08
1.47758e-07
-8.67032e-08
1.99061e-07
-9.52152e-08
2.46486e-07
-9.56549e-08
2.8874e-07
-9.01549e-08
3.24993e-07
-8.08735e-08
3.55272e-07
-6.94623e-08
3.79634e-07
-5.70135e-08
3.98519e-07
-4.4182e-08
4.12192e-07
-3.13303e-08
4.21168e-07
-1.86218e-08
4.25896e-07
-6.14942e-09
4.26847e-07
6.12018e-09
4.23824e-07
1.83027e-08
4.16428e-07
3.03583e-08
4.03978e-07
4.20326e-08
3.85972e-07
5.28858e-08
3.61976e-07
6.22613e-08
3.32057e-07
6.93338e-08
2.96747e-07
7.32108e-08
2.5741e-07
7.31419e-08
2.16173e-07
6.87904e-08
1.76123e-07
6.04002e-08
1.40849e-07
4.8681e-08
1.13918e-07
3.44334e-08
9.77462e-08
1.82242e-08
9.38554e-08
3.62213e-10
1.01669e-07
-1.81937e-08
1.1958e-07
-3.67508e-08
1.42796e-07
-5.11138e-08
1.64316e-07
-5.5298e-08
1.78664e-07
-4.79227e-08
1.83762e-07
-3.27511e-08
1.79561e-07
-1.41158e-08
1.671e-07
3.93951e-09
1.48432e-07
1.75687e-08
1.20748e-07
3.07922e-08
7.53297e-08
4.96131e-08
3.18697e-09
7.50378e-08
-9.96822e-08
1.07529e-07
-2.27632e-07
1.42528e-07
-3.71679e-07
1.75788e-07
-5.22897e-07
2.0687e-07
-6.76654e-07
2.33954e-07
-8.31342e-07
2.54332e-07
-9.83466e-07
2.68022e-07
-1.12945e-06
2.75066e-07
-1.26653e-06
2.74991e-07
-1.39273e-06
2.68179e-07
-1.50647e-06
2.56462e-07
-1.60761e-06
2.41579e-07
-1.697e-06
2.24638e-07
-1.77596e-06
2.06788e-07
-1.8459e-06
1.89084e-07
-1.90801e-06
1.72566e-07
-1.96392e-06
1.57329e-07
-2.015e-06
1.43468e-07
-2.06175e-06
1.314e-07
-2.10483e-06
1.20946e-07
-2.14502e-06
1.11836e-07
-2.18276e-06
1.03917e-07
-2.21844e-06
9.70355e-08
-2.25228e-06
9.10302e-08
-2.28451e-06
8.57573e-08
-2.31526e-06
8.10816e-08
-2.34465e-06
7.68973e-08
-2.37277e-06
7.31073e-08
-2.39969e-06
6.96373e-08
-2.42544e-06
6.64201e-08
-2.45008e-06
6.34053e-08
-2.47362e-06
6.0548e-08
-2.49608e-06
5.78149e-08
-2.51749e-06
5.51745e-08
-2.53784e-06
5.26052e-08
-2.55714e-06
5.00856e-08
-2.57539e-06
4.76017e-08
-2.59258e-06
4.51381e-08
-2.60871e-06
4.26848e-08
-2.62377e-06
4.02321e-08
-2.63774e-06
3.77711e-08
-2.65061e-06
3.52943e-08
-2.66239e-06
3.27943e-08
-2.67308e-06
3.02648e-08
-2.68265e-06
2.7696e-08
-2.69104e-06
2.50863e-08
-2.69823e-06
2.24299e-08
-2.70421e-06
1.97335e-08
-2.709e-06
1.69995e-08
-2.7126e-06
1.42371e-08
-2.71504e-06
1.14483e-08
-2.71638e-06
8.64601e-09
-2.71665e-06
5.83772e-09
-2.71596e-06
3.05233e-09
-2.7144e-06
3.14863e-10
-2.712e-06
-2.33621e-09
-2.70857e-06
-4.94124e-09
-2.70391e-06
-7.52742e-09
-2.698e-06
-1.00952e-08
-2.69082e-06
-1.26414e-08
-2.68237e-06
-1.5174e-08
-2.67266e-06
-1.76916e-08
-2.66172e-06
-2.01929e-08
-2.64953e-06
-2.26773e-08
-2.63613e-06
-2.51394e-08
-2.62153e-06
-2.75827e-08
-2.60573e-06
-3.00001e-08
-2.58875e-06
-3.23992e-08
-2.57061e-06
-3.47713e-08
-2.55132e-06
-3.71254e-08
-2.53088e-06
-3.94519e-08
-2.5093e-06
-4.17623e-08
-2.48661e-06
-4.40531e-08
-2.4628e-06
-4.63383e-08
-2.43786e-06
-4.86139e-08
-2.41179e-06
-5.08886e-08
-2.38459e-06
-5.31538e-08
-2.35627e-06
-5.54134e-08
-2.32684e-06
-5.76624e-08
-2.29631e-06
-5.99027e-08
-2.26468e-06
-6.21328e-08
-2.23195e-06
-6.43498e-08
-2.19813e-06
-6.65557e-08
-2.16322e-06
-6.87423e-08
-2.12723e-06
-7.09134e-08
-2.09017e-06
-7.3053e-08
-2.05206e-06
-7.51664e-08
-2.01291e-06
-7.72372e-08
-1.97275e-06
-7.9268e-08
-1.93158e-06
-8.1237e-08
-1.88942e-06
-8.31466e-08
-1.84627e-06
-8.49925e-08
-1.80213e-06
-8.68079e-08
-1.75712e-06
-8.86276e-08
-1.71131e-06
-9.04102e-08
-1.66469e-06
-9.20811e-08
-1.6173e-06
-9.36617e-08
-1.56918e-06
-9.51401e-08
-1.52038e-06
-9.65312e-08
-1.47095e-06
-9.78212e-08
-1.42094e-06
-9.90246e-08
-1.37039e-06
-1.00125e-07
-1.31935e-06
-1.01143e-07
-1.26786e-06
-1.02058e-07
-1.21598e-06
-1.02895e-07
-1.16373e-06
-1.03632e-07
-1.11118e-06
-1.04284e-07
-1.05836e-06
-1.0484e-07
-1.00531e-06
-1.05306e-07
-9.52085e-07
-1.05675e-07
-8.98723e-07
-1.05964e-07
-8.45257e-07
-1.06174e-07
-7.91721e-07
-1.06322e-07
-7.38136e-07
-1.06417e-07
-6.84525e-07
-1.06473e-07
-6.30898e-07
-1.06501e-07
-5.77264e-07
-1.06513e-07
-5.23627e-07
-1.06516e-07
-4.69985e-07
-1.06513e-07
-4.16344e-07
-1.06505e-07
-3.62701e-07
-1.06489e-07
-3.09061e-07
-1.06472e-07
-2.55415e-07
-1.06454e-07
-2.01764e-07
-1.06445e-07
-1.48098e-07
-1.0644e-07
-9.44217e-08
-1.06438e-07
-4.07383e-08
-1.06403e-07
1.28945e-08
-1.06283e-07
6.64007e-08
-1.05983e-07
1.19629e-07
-1.05358e-07
1.72346e-07
-1.04077e-07
2.24087e-07
-1.01648e-07
2.74368e-07
-9.71162e-08
3.19931e-07
-8.90403e-08
-6.36537e-08
3.63726e-07
1.3099e-10
1.16113e-08
2.85061e-09
1.82954e-08
1.62518e-08
5.76523e-09
4.82417e-08
-2.48927e-08
9.7897e-08
-6.48351e-08
1.55619e-07
-1.00918e-07
2.11641e-07
-1.24897e-07
2.60205e-07
-1.35297e-07
2.99677e-07
-1.34668e-07
3.3058e-07
-1.26587e-07
3.54542e-07
-1.141e-07
3.72971e-07
-9.93309e-08
3.87113e-07
-8.35905e-08
3.97689e-07
-6.76143e-08
4.05307e-07
-5.17873e-08
4.10256e-07
-3.63e-08
4.12882e-07
-2.12345e-08
4.13351e-07
-6.63489e-09
4.12003e-07
7.48155e-09
4.09132e-07
2.11624e-08
4.05042e-07
3.44603e-08
3.99708e-07
4.73585e-08
3.92884e-07
5.97233e-08
3.83913e-07
7.12277e-08
3.7196e-07
8.12993e-08
3.5607e-07
8.91027e-08
3.35642e-07
9.35853e-08
3.10794e-07
9.36447e-08
2.82801e-07
8.84114e-08
2.54043e-07
7.74489e-08
2.27604e-07
6.08936e-08
2.06375e-07
3.94624e-08
1.9222e-07
1.45376e-08
1.85489e-07
-1.14599e-08
1.8229e-07
-3.35407e-08
1.75127e-07
-4.39552e-08
1.59211e-07
-3.93808e-08
1.34172e-07
-2.28893e-08
1.00932e-07
4.89645e-10
5.81917e-08
2.86217e-08
1.52458e-09
6.06086e-08
-7.5759e-08
9.48545e-08
-1.76868e-07
1.31902e-07
-2.99799e-07
1.72545e-07
-4.39604e-07
2.14843e-07
-5.87809e-07
2.55735e-07
-7.37825e-07
2.92544e-07
-8.85052e-07
3.23014e-07
-1.02419e-06
3.46003e-07
-1.1515e-06
3.61266e-07
-1.26564e-06
3.68467e-07
-1.36575e-06
3.68133e-07
-1.45168e-06
3.60987e-07
-1.52468e-06
3.47985e-07
-1.58706e-06
3.30554e-07
-1.64107e-06
3.10457e-07
-1.68863e-06
2.89132e-07
-1.73157e-06
2.67561e-07
-1.77136e-06
2.46576e-07
-1.80908e-06
2.26789e-07
-1.84515e-06
2.08634e-07
-1.88009e-06
1.92258e-07
-1.91422e-06
1.77592e-07
-1.94748e-06
1.64652e-07
-1.97984e-06
1.53301e-07
-2.01133e-06
1.43329e-07
-2.04197e-06
1.3455e-07
-2.07173e-06
1.26796e-07
-2.10061e-06
1.19907e-07
-2.12859e-06
1.13741e-07
-2.15568e-06
1.08172e-07
-2.18187e-06
1.03092e-07
-2.20717e-06
9.84076e-08
-2.23157e-06
9.40429e-08
-2.25508e-06
8.99329e-08
-2.2777e-06
8.60249e-08
-2.29942e-06
8.22736e-08
-2.32024e-06
7.8643e-08
-2.34017e-06
7.51015e-08
-2.35918e-06
7.16243e-08
-2.37728e-06
6.81892e-08
-2.39446e-06
6.47786e-08
-2.4107e-06
6.13767e-08
-2.42598e-06
5.79706e-08
-2.4403e-06
5.45493e-08
-2.45363e-06
5.11026e-08
-2.46596e-06
4.76228e-08
-2.47729e-06
4.41003e-08
-2.48761e-06
4.05311e-08
-2.49689e-06
3.69083e-08
-2.5051e-06
3.32275e-08
-2.51219e-06
2.94898e-08
-2.51817e-06
2.56966e-08
-2.52303e-06
2.18617e-08
-2.52678e-06
1.79891e-08
-2.52942e-06
1.40966e-08
-2.53096e-06
1.01878e-08
-2.53141e-06
6.2864e-09
-2.53077e-06
2.39831e-09
-2.52901e-06
-1.45323e-09
-2.52609e-06
-5.27652e-09
-2.52197e-06
-9.08548e-09
-2.51663e-06
-1.28902e-08
-2.51006e-06
-1.66785e-08
-2.50226e-06
-2.04455e-08
-2.49324e-06
-2.41936e-08
-2.48301e-06
-2.7915e-08
-2.47159e-06
-3.16125e-08
-2.45898e-06
-3.52759e-08
-2.4452e-06
-3.891e-08
-2.43026e-06
-4.25058e-08
-2.41418e-06
-4.60706e-08
-2.39697e-06
-4.95975e-08
-2.37864e-06
-5.30945e-08
-2.3592e-06
-5.65563e-08
-2.33867e-06
-5.99907e-08
-2.31704e-06
-6.3397e-08
-2.29432e-06
-6.67865e-08
-2.27052e-06
-7.01623e-08
-2.24562e-06
-7.35311e-08
-2.21963e-06
-7.68941e-08
-2.19255e-06
-8.02503e-08
-2.16437e-06
-8.35994e-08
-2.13511e-06
-8.69394e-08
-2.10476e-06
-9.02701e-08
-2.07333e-06
-9.35875e-08
-2.04082e-06
-9.68908e-08
-2.00722e-06
-1.00175e-07
-1.97255e-06
-1.03436e-07
-1.93681e-06
-1.06668e-07
-1.90002e-06
-1.09865e-07
-1.86218e-06
-1.13016e-07
-1.82331e-06
-1.16113e-07
-1.78343e-06
-1.19148e-07
-1.74256e-06
-1.22108e-07
-1.70071e-06
-1.24986e-07
-1.65791e-06
-1.27786e-07
-1.61419e-06
-1.30523e-07
-1.56963e-06
-1.33201e-07
-1.52427e-06
-1.35787e-07
-1.47813e-06
-1.38244e-07
-1.43125e-06
-1.40564e-07
-1.38368e-06
-1.42743e-07
-1.33545e-06
-1.44781e-07
-1.28661e-06
-1.46677e-07
-1.23722e-06
-1.48433e-07
-1.18732e-06
-1.50045e-07
-1.13696e-06
-1.51521e-07
-1.08618e-06
-1.52856e-07
-1.03503e-06
-1.54063e-07
-9.8354e-07
-1.55137e-07
-9.31759e-07
-1.56076e-07
-8.79732e-07
-1.56883e-07
-8.27496e-07
-1.57552e-07
-7.75096e-07
-1.58088e-07
-7.22567e-07
-1.58503e-07
-6.69945e-07
-1.58807e-07
-6.17257e-07
-1.59019e-07
-5.64527e-07
-1.59156e-07
-5.1177e-07
-1.59237e-07
-4.59001e-07
-1.59279e-07
-4.06224e-07
-1.59297e-07
-3.5344e-07
-1.59306e-07
-3.0065e-07
-1.59309e-07
-2.47853e-07
-1.59309e-07
-1.95046e-07
-1.59303e-07
-1.42228e-07
-1.59297e-07
-8.93916e-08
-1.59297e-07
-3.65311e-08
-1.59313e-07
1.63618e-08
-1.5934e-07
6.92873e-08
-1.59372e-07
1.22245e-07
-1.5937e-07
1.75221e-07
-1.59268e-07
2.28161e-07
-1.58934e-07
2.80958e-07
-1.58165e-07
3.33444e-07
-1.56574e-07
3.85346e-07
-1.5356e-07
4.36305e-07
-1.48084e-07
4.85423e-07
-1.38168e-07
-1.14213e-07
5.35966e-07
-2.43351e-10
1.18623e-08
1.13995e-08
6.61657e-09
4.94372e-08
-3.22438e-08
1.10005e-07
-8.54937e-08
1.76381e-07
-1.31189e-07
2.3403e-07
-1.58593e-07
2.77143e-07
-1.67995e-07
3.06377e-07
-1.64556e-07
3.25309e-07
-1.53586e-07
3.37467e-07
-1.38771e-07
3.45579e-07
-1.222e-07
3.51165e-07
-1.04942e-07
3.55112e-07
-8.75277e-08
3.57709e-07
-7.02337e-08
3.59142e-07
-5.32109e-08
3.59382e-07
-3.65587e-08
3.58503e-07
-2.03463e-08
3.56487e-07
-4.63312e-09
3.53451e-07
1.05276e-08
3.49485e-07
2.5117e-08
3.44843e-07
3.91137e-08
3.39713e-07
5.24826e-08
3.34293e-07
6.51547e-08
3.28552e-07
7.69677e-08
3.22258e-07
8.76078e-08
3.14837e-07
9.65286e-08
3.05549e-07
1.02889e-07
2.93636e-07
1.05567e-07
2.78744e-07
1.03322e-07
2.61089e-07
9.51149e-08
2.41695e-07
8.03068e-08
2.22043e-07
5.91219e-08
2.03034e-07
3.35653e-08
1.82044e-07
9.52932e-09
1.51999e-07
-3.48615e-09
1.09126e-07
-1.08961e-09
5.46582e-08
1.50923e-08
-1.14419e-08
4.3207e-08
-9.18306e-08
8.08799e-08
-1.88055e-07
1.24847e-07
-2.99633e-07
1.72188e-07
-4.24973e-07
2.20195e-07
-5.60098e-07
2.67029e-07
-6.98907e-07
3.11353e-07
-8.35488e-07
3.51425e-07
-9.64392e-07
3.84638e-07
-1.08115e-06
4.09302e-07
-1.18366e-06
4.25529e-07
-1.27117e-06
4.33509e-07
-1.34381e-06
4.33909e-07
-1.40306e-06
4.27718e-07
-1.45094e-06
4.16006e-07
-1.48989e-06
3.99929e-07
-1.52257e-06
3.8066e-07
-1.55143e-06
3.59409e-07
-1.5783e-06
3.37318e-07
-1.6044e-06
3.15232e-07
-1.63059e-06
2.93739e-07
-1.65731e-06
2.73288e-07
-1.68472e-06
2.54192e-07
-1.71272e-06
2.36633e-07
-1.74116e-06
2.20688e-07
-1.76986e-06
2.06292e-07
-1.7986e-06
1.93387e-07
-1.82717e-06
1.81868e-07
-1.85542e-06
1.71575e-07
-1.88323e-06
1.62358e-07
-1.9105e-06
1.54069e-07
-1.93716e-06
1.46572e-07
-1.96316e-06
1.39742e-07
-1.98846e-06
1.33468e-07
-2.01302e-06
1.27652e-07
-2.03682e-06
1.2221e-07
-2.05984e-06
1.17069e-07
-2.08208e-06
1.12169e-07
-2.10351e-06
1.07459e-07
-2.12413e-06
1.02895e-07
-2.14392e-06
9.84406e-08
-2.16289e-06
9.40659e-08
-2.181e-06
8.97442e-08
-2.19827e-06
8.54529e-08
-2.21466e-06
8.11724e-08
-2.23017e-06
7.68859e-08
-2.24478e-06
7.25787e-08
-2.25847e-06
6.82384e-08
-2.27122e-06
6.3854e-08
-2.28302e-06
5.94154e-08
-2.29385e-06
5.49159e-08
-2.30371e-06
5.03478e-08
-2.31257e-06
4.57088e-08
-2.32039e-06
4.09948e-08
-2.32714e-06
3.62059e-08
-2.3328e-06
3.13472e-08
-2.33737e-06
2.64304e-08
-2.34084e-06
2.14644e-08
-2.3432e-06
1.6465e-08
-2.34445e-06
1.14391e-08
-2.34457e-06
6.40665e-09
-2.34355e-06
1.37115e-09
-2.34136e-06
-3.64993e-09
-2.33798e-06
-8.66323e-09
-2.33341e-06
-1.36662e-08
-2.32765e-06
-1.86619e-08
-2.32069e-06
-2.36376e-08
-2.31255e-06
-2.85885e-08
-2.30322e-06
-3.35108e-08
-2.29273e-06
-3.83967e-08
-2.28109e-06
-4.32458e-08
-2.26831e-06
-4.80476e-08
-2.2544e-06
-5.28074e-08
-2.23938e-06
-5.75143e-08
-2.22327e-06
-6.21796e-08
-2.20606e-06
-6.67934e-08
-2.18779e-06
-7.13695e-08
-2.16844e-06
-7.58992e-08
-2.14804e-06
-8.03981e-08
-2.12658e-06
-8.48636e-08
-2.10407e-06
-8.93122e-08