/*--------------------------------*- C++ -*----------------------------------*\
  =========                 |
  \\      /  F ield         | OpenFOAM: The Open Source CFD Toolbox
   \\    /   O peration     | Website:  https://openfoam.org
    \\  /    A nd           | Version:  13
     \\/     M anipulation  |
\*---------------------------------------------------------------------------*/
FoamFile
{
    format      ascii;
    class       volVectorField;
    location    "600";
    object      U;
}
// * * * * * * * * * * * * * * * * * * * * * * * * * * * * * * * * * * * * * //

dimensions      [0 1 -1 0 0 0 0];

internalField   nonuniform List<vector> 
12225
(
(9.75232 0.0492936 0)
(9.27866 0.105777 0)
(8.79029 0.115218 0)
(8.34845 0.107041 0)
(7.94259 0.09605 0)
(7.60025 0.0683179 0)
(7.31703 0.0652979 0)
(7.06893 0.0609486 0)
(6.86279 0.0368932 0)
(6.68492 0.0228471 0)
(6.53737 0.0225104 0)
(6.42637 0.0298068 0)
(6.33331 0.0201781 0)
(6.26592 0.00131637 0)
(6.22376 -0.0125406 0)
(6.19569 -0.0230924 0)
(6.18248 -0.0291739 0)
(6.1798 -0.0179398 0)
(10.1049 0.056294 0)
(10.3162 0.0943709 0)
(10.427 0.0961544 0)
(10.4853 0.0959445 0)
(10.4827 0.0949918 0)
(10.4535 0.0931489 0)
(10.4003 0.0864913 0)
(10.3064 0.0804947 0)
(10.215 0.0775992 0)
(10.1298 0.0723484 0)
(10.0403 0.0637826 0)
(9.94077 0.0540023 0)
(9.83931 0.0476639 0)
(9.74867 0.0426489 0)
(9.66126 0.0382045 0)
(9.5804 0.0335701 0)
(9.50461 0.0268775 0)
(9.43279 0.015366 0)
(10.0102 0.0458741 0)
(10.0608 0.0726312 0)
(10.1129 0.0724113 0)
(10.1624 0.0755602 0)
(10.2117 0.0807748 0)
(10.2587 0.0818208 0)
(10.3003 0.0835871 0)
(10.336 0.0833485 0)
(10.3635 0.0798828 0)
(10.3833 0.0770372 0)
(10.3968 0.073857 0)
(10.4055 0.0707886 0)
(10.4098 0.0661876 0)
(10.4082 0.0600183 0)
(10.4017 0.0541708 0)
(10.3913 0.0484899 0)
(10.378 0.0424515 0)
(10.3609 0.0354294 0)
(10.0139 0.0250344 0)
(10.0398 0.0562355 0)
(10.0678 0.0639549 0)
(10.086 0.0697347 0)
(10.1016 0.073478 0)
(10.1178 0.0728828 0)
(10.1346 0.0726989 0)
(10.1525 0.0710575 0)
(10.1694 0.0668301 0)
(10.1848 0.0631892 0)
(10.1997 0.0601531 0)
(10.2144 0.0570992 0)
(10.2284 0.0528452 0)
(10.2406 0.0478597 0)
(10.2509 0.0433703 0)
(10.2599 0.0389566 0)
(10.2674 0.0344883 0)
(10.2741 0.0299124 0)
(10.0094 0.0237468 0)
(10.0225 0.0543296 0)
(10.0525 0.0643302 0)
(10.0703 0.0690373 0)
(10.0841 0.0714564 0)
(10.0969 0.0710641 0)
(10.1089 0.0705238 0)
(10.1204 0.0688535 0)
(10.1306 0.0654974 0)
(10.1394 0.0623337 0)
(10.1479 0.0594256 0)
(10.1562 0.0563651 0)
(10.1642 0.0524198 0)
(10.1713 0.0478017 0)
(10.1774 0.0432661 0)
(10.1829 0.0387631 0)
(10.1877 0.0343564 0)
(10.1926 0.0298759 0)
(10.0047 0.020943 0)
(10.016 0.0465284 0)
(10.041 0.0576008 0)
(10.0584 0.0620404 0)
(10.0723 0.0648178 0)
(10.085 0.0656418 0)
(10.097 0.0656159 0)
(10.108 0.0642718 0)
(10.1177 0.0616207 0)
(10.126 0.058774 0)
(10.1337 0.0558244 0)
(10.1409 0.0525636 0)
(10.1475 0.0486878 0)
(10.1534 0.0443562 0)
(10.1584 0.0399683 0)
(10.1627 0.0355854 0)
(10.1666 0.0313143 0)
(10.1702 0.0268198 0)
(10.0013 0.0187715 0)
(10.0136 0.040005 0)
(10.0323 0.0518611 0)
(10.0488 0.0574321 0)
(10.0622 0.0607442 0)
(10.0744 0.062064 0)
(10.086 0.0620805 0)
(10.0967 0.0607916 0)
(10.1061 0.0584645 0)
(10.1144 0.0557823 0)
(10.122 0.0528741 0)
(10.129 0.0496524 0)
(10.1354 0.0460171 0)
(10.141 0.0420557 0)
(10.1458 0.0379864 0)
(10.15 0.0338807 0)
(10.1536 0.0298289 0)
(10.1568 0.0255142 0)
(9.99878 0.016817 0)
(10.0132 0.0361107 0)
(10.0275 0.0471549 0)
(10.0422 0.0528876 0)
(10.055 0.056148 0)
(10.0666 0.0575939 0)
(10.0776 0.0576391 0)
(10.0878 0.0564856 0)
(10.0968 0.0544549 0)
(10.1049 0.052028 0)
(10.1123 0.0492827 0)
(10.1191 0.0462062 0)
(10.1252 0.0427918 0)
(10.1306 0.0391146 0)
(10.1353 0.0353081 0)
(10.1394 0.0314396 0)
(10.1429 0.0275918 0)
(10.1459 0.0235276 0)
(10.0008 0.0130761 0)
(10.0125 0.0310771 0)
(10.024 0.0421579 0)
(10.0373 0.0480486 0)
(10.0492 0.0513772 0)
(10.0603 0.0529977 0)
(10.0707 0.0531732 0)
(10.0804 0.0522061 0)
(10.0891 0.0504684 0)
(10.097 0.0482764 0)
(10.1042 0.0457156 0)
(10.1108 0.0428262 0)
(10.1167 0.0396471 0)
(10.1219 0.0362477 0)
(10.1265 0.0327218 0)
(10.1305 0.029131 0)
(10.134 0.0255486 0)
(10.1369 0.0218216 0)
(10.0011 0.0109884 0)
(10.0103 0.0271878 0)
(10.0206 0.0371048 0)
(10.0327 0.0429675 0)
(10.0439 0.0463968 0)
(10.0544 0.0481768 0)
(10.0644 0.0485492 0)
(10.0737 0.0478188 0)
(10.0822 0.0463407 0)
(10.0899 0.0443728 0)
(10.0969 0.0420182 0)
(10.1033 0.0393392 0)
(10.1091 0.0363965 0)
(10.1142 0.0332592 0)
(10.1188 0.0300028 0)
(10.1227 0.0266853 0)
(10.1261 0.0233741 0)
(10.129 0.0199886 0)
(10.0009 0.00899877 0)
(10.008 0.0237846 0)
(10.0174 0.0325899 0)
(10.0283 0.0381114 0)
(10.0387 0.0414515 0)
(10.0487 0.0432714 0)
(10.0582 0.0437871 0)
(10.0672 0.0432645 0)
(10.0754 0.0420116 0)
(10.0829 0.0402548 0)
(10.0898 0.0381089 0)
(10.0961 0.0356491 0)
(10.1018 0.0329474 0)
(10.1068 0.0300724 0)
(10.1113 0.0270913 0)
(10.1152 0.0240593 0)
(10.1186 0.0210378 0)
(10.1215 0.0179939 0)
(10.0007 0.00746632 0)
(10.0063 0.0206267 0)
(10.0147 0.0286425 0)
(10.0246 0.0338282 0)
(10.0343 0.0370172 0)
(10.0437 0.0387959 0)
(10.0527 0.0393742 0)
(10.0613 0.0389891 0)
(10.0693 0.0379096 0)
(10.0766 0.0363338 0)
(10.0834 0.0343783 0)
(10.0895 0.032125 0)
(10.0951 0.0296489 0)
(10.1001 0.0270165 0)
(10.1046 0.0242891 0)
(10.1085 0.0215207 0)
(10.1119 0.0187649 0)
(10.1148 0.0160252 0)
(10.0006 0.00622686 0)
(10.0052 0.0177929 0)
(10.0126 0.0249379 0)
(10.0214 0.0297066 0)
(10.0304 0.0326796 0)
(10.0392 0.034358 0)
(10.0477 0.0349445 0)
(10.0559 0.034647 0)
(10.0635 0.0336982 0)
(10.0706 0.0322756 0)
(10.0772 0.0304931 0)
(10.0832 0.0284353 0)
(10.0886 0.0261754 0)
(10.0935 0.0237763 0)
(10.0979 0.0212982 0)
(10.1018 0.0187892 0)
(10.1052 0.0163019 0)
(10.1082 0.0138536 0)
(10.0005 0.00505706 0)
(10.0042 0.0147694 0)
(10.0106 0.0209193 0)
(10.0184 0.0251497 0)
(10.0265 0.0278182 0)
(10.0346 0.0293308 0)
(10.0426 0.0298794 0)
(10.0502 0.0296445 0)
(10.0575 0.0288156 0)
(10.0642 0.0275489 0)
(10.0705 0.0259515 0)
(10.0762 0.0241069 0)
(10.0815 0.0220826 0)
(10.0863 0.0199403 0)
(10.0906 0.0177332 0)
(10.0944 0.0155072 0)
(10.0978 0.013307 0)
(10.1008 0.011164 0)
(10.0004 0.00393998 0)
(10.0034 0.0116471 0)
(10.0088 0.0166445 0)
(10.0156 0.0201822 0)
(10.0228 0.0224336 0)
(10.0302 0.0236991 0)
(10.0375 0.024152 0)
(10.0446 0.0239387 0)
(10.0514 0.0232092 0)
(10.0577 0.0220916 0)
(10.0636 0.0206842 0)
(10.0691 0.0190617 0)
(10.0742 0.0172867 0)
(10.0788 0.0154149 0)
(10.0829 0.0134918 0)
(10.0867 0.0115631 0)
(10.09 0.00965922 0)
(10.093 0.00782627 0)
(10.0003 0.00285371 0)
(10.0027 0.00849852 0)
(10.0072 0.012182 0)
(10.0131 0.014851 0)
(10.0195 0.0165456 0)
(10.0262 0.0174622 0)
(10.0328 0.0177401 0)
(10.0394 0.0174897 0)
(10.0456 0.0168227 0)
(10.0516 0.0158369 0)
(10.0572 0.0146142 0)
(10.0623 0.0132162 0)
(10.0671 0.0116985 0)
(10.0715 0.0101049 0)
(10.0756 0.00847751 0)
(10.0792 0.00685027 0)
(10.0825 0.00525241 0)
(10.0855 0.00372061 0)
(10.0002 0.00177734 0)
(10.0023 0.00532888 0)
(10.006 0.00754844 0)
(10.0111 0.00916753 0)
(10.0168 0.010148 0)
(10.0228 0.0105973 0)
(10.0289 0.0106042 0)
(10.0349 0.0102442 0)
(10.0407 0.00958834 0)
(10.0462 0.00870461 0)
(10.0515 0.00764915 0)
(10.0564 0.00647055 0)
(10.061 0.00520752 0)
(10.0652 0.00389512 0)
(10.069 0.00256509 0)
(10.0726 0.00124076 0)
(10.0758 -5.384e-05 0)
(10.0788 -0.00129003 0)
(10.0002 0.000674279 0)
(10.0019 0.0020656 0)
(10.0052 0.0026637 0)
(10.0097 0.00304692 0)
(10.0149 0.00314212 0)
(10.0204 0.00298536 0)
(10.026 0.0026114 0)
(10.0316 0.00205469 0)
(10.037 0.00134754 0)
(10.0423 0.000523092 0)
(10.0472 -0.000389841 0)
(10.0519 -0.0013654 0)
(10.0563 -0.00238062 0)
(10.0604 -0.00341502 0)
(10.0641 -0.00444994 0)
(10.0676 -0.00546997 0)
(10.0708 -0.00646407 0)
(10.0737 -0.00740397 0)
(10.0002 -0.000539876 0)
(10.0018 -0.00150335 0)
(10.005 -0.0027385 0)
(10.0093 -0.00378382 0)
(10.0142 -0.00473471 0)
(10.0195 -0.00562414 0)
(10.0249 -0.00647874 0)
(10.0303 -0.00730498 0)
(10.0355 -0.00811642 0)
(10.0406 -0.00891534 0)
(10.0454 -0.00970872 0)
(10.05 -0.0104943 0)
(10.0542 -0.0112715 0)
(10.0582 -0.0120357 0)
(10.0619 -0.012783 0)
(10.0653 -0.0135077 0)
(10.0685 -0.0142084 0)
(10.0715 -0.0148628 0)
(10.0002 -0.00173066 0)
(10.002 -0.00497433 0)
(10.0055 -0.00797788 0)
(10.0101 -0.0103681 0)
(10.0154 -0.0122821 0)
(10.0209 -0.0138408 0)
(10.0264 -0.0151183 0)
(10.032 -0.0161766 0)
(10.0373 -0.0170613 0)
(10.0425 -0.0178238 0)
(10.0473 -0.0184948 0)
(10.0519 -0.0191011 0)
(10.0562 -0.0196576 0)
(10.0601 -0.020177 0)
(10.0638 -0.0206679 0)
(10.0673 -0.0211334 0)
(10.0705 -0.0215815 0)
(10.0734 -0.0219939 0)
(10.0003 -0.00284176 0)
(10.0024 -0.00814714 0)
(10.0065 -0.0126738 0)
(10.0118 -0.0161244 0)
(10.0176 -0.0187527 0)
(10.0236 -0.0207839 0)
(10.0295 -0.0223381 0)
(10.0353 -0.0235092 0)
(10.0409 -0.0243875 0)
(10.0463 -0.0250634 0)
(10.0513 -0.0255951 0)
(10.0559 -0.0260269 0)
(10.0603 -0.0263864 0)
(10.0643 -0.0266971 0)
(10.0681 -0.0269751 0)
(10.0715 -0.0272302 0)
(10.0748 -0.027472 0)
(10.0777 -0.0276873 0)
(10.0003 -0.00406274 0)
(10.0031 -0.0115275 0)
(10.0082 -0.017485 0)
(10.0145 -0.0217982 0)
(10.021 -0.0249752 0)
(10.0276 -0.0273488 0)
(10.0341 -0.0290728 0)
(10.0403 -0.0302673 0)
(10.0463 -0.0310728 0)
(10.0518 -0.031606 0)
(10.057 -0.0319577 0)
(10.0618 -0.0321845 0)
(10.0663 -0.0323318 0)
(10.0704 -0.0324313 0)
(10.0743 -0.0325074 0)
(10.0778 -0.0325751 0)
(10.0811 -0.032644 0)
(10.0841 -0.0327092 0)
(10.0005 -0.00549911 0)
(10.0042 -0.0153126 0)
(10.0107 -0.0225552 0)
(10.0182 -0.0275075 0)
(10.0257 -0.0310736 0)
(10.0329 -0.0336657 0)
(10.04 -0.0354362 0)
(10.0468 -0.0365672 0)
(10.0532 -0.037248 0)
(10.0591 -0.0376206 0)
(10.0645 -0.0377737 0)
(10.0695 -0.0377782 0)
(10.0741 -0.0376917 0)
(10.0784 -0.0375601 0)
(10.0823 -0.0374143 0)
(10.0858 -0.0372731 0)
(10.0892 -0.0371488 0)
(10.0922 -0.0370349 0)
(10.0007 -0.0072775 0)
(10.0059 -0.0196925 0)
(10.0144 -0.0279299 0)
(10.0233 -0.0332504 0)
(10.0317 -0.0370913 0)
(10.0398 -0.0398164 0)
(10.0476 -0.0415061 0)
(10.055 -0.0424337 0)
(10.0618 -0.0429003 0)
(10.068 -0.0430817 0)
(10.0738 -0.0430473 0)
(10.0791 -0.0428534 0)
(10.0839 -0.0425639 0)
(10.0883 -0.0422371 0)
(10.0923 -0.0419125 0)
(10.096 -0.0416073 0)
(10.0994 -0.0413286 0)
(10.1025 -0.0410459 0)
(10.0011 -0.00953967 0)
(10.0085 -0.0248254 0)
(10.0195 -0.0336178 0)
(10.03 -0.039007 0)
(10.0394 -0.0430014 0)
(10.0485 -0.0458217 0)
(10.0572 -0.0474342 0)
(10.0653 -0.0481001 0)
(10.0727 -0.0482316 0)
(10.0794 -0.0480949 0)
(10.0855 -0.0477881 0)
(10.0911 -0.0473482 0)
(10.0962 -0.0468196 0)
(10.1009 -0.0462702 0)
(10.1051 -0.0457534 0)
(10.1089 -0.0452911 0)
(10.1124 -0.0448845 0)
(10.1157 -0.0444975 0)
(10.0017 -0.0125682 0)
(10.0125 -0.0306408 0)
(10.0269 -0.0395408 0)
(10.0392 -0.0449166 0)
(10.0499 -0.0488639 0)
(10.0603 -0.0515281 0)
(10.0704 -0.0530309 0)
(10.0797 -0.0535737 0)
(10.088 -0.0534754 0)
(10.0954 -0.0530037 0)
(10.1022 -0.0523563 0)
(10.1084 -0.0516465 0)
(10.114 -0.0508974 0)
(10.1189 -0.050158 0)
(10.1234 -0.0494721 0)
(10.1275 -0.0488639 0)
(10.1311 -0.0483357 0)
(10.1346 -0.0478941 0)
(10.0031 -0.017327 0)
(10.0201 -0.0369248 0)
(10.039 -0.0449755 0)
(10.0545 -0.0506397 0)
(10.0682 -0.0548915 0)
(10.0814 -0.0571957 0)
(10.094 -0.0582006 0)
(10.1057 -0.058502 0)
(10.116 -0.0582849 0)
(10.125 -0.0575348 0)
(10.133 -0.0563842 0)
(10.1401 -0.0551282 0)
(10.1464 -0.0539272 0)
(10.1518 -0.0528448 0)
(10.1564 -0.0518965 0)
(10.1604 -0.0510442 0)
(10.1639 -0.0503355 0)
(10.1668 -0.0497431 0)
(10.0076 -0.0261651 0)
(10.0412 -0.0459515 0)
(10.0712 -0.051509 0)
(10.0967 -0.0566628 0)
(10.1198 -0.0616647 0)
(10.1413 -0.0647232 0)
(10.1603 -0.0656622 0)
(10.1763 -0.0657595 0)
(10.1893 -0.0655628 0)
(10.1996 -0.064951 0)
(10.2074 -0.06381 0)
(10.2127 -0.0621887 0)
(10.2159 -0.0604096 0)
(10.2173 -0.0587304 0)
(10.2171 -0.0572384 0)
(10.2157 -0.0559655 0)
(10.2133 -0.0548704 0)
(10.2102 -0.0540847 0)
(10.0477 -0.0368617 0)
(10.1435 -0.0640196 0)
(10.2131 -0.0683901 0)
(10.2562 -0.0695611 0)
(10.2809 -0.0703638 0)
(10.2911 -0.0709567 0)
(10.2879 -0.0692509 0)
(10.2735 -0.066484 0)
(10.2506 -0.06362 0)
(10.222 -0.0609859 0)
(10.1892 -0.0586957 0)
(10.1535 -0.0561505 0)
(10.1156 -0.0534133 0)
(10.0766 -0.050815 0)
(10.0369 -0.0484162 0)
(9.99782 -0.0463748 0)
(9.95979 -0.0445799 0)
(9.92308 -0.0434949 0)
(9.87348 -0.0381389 0)
(9.62799 -0.0728638 0)
(9.36507 -0.0839233 0)
(9.09841 -0.085833 0)
(8.84646 -0.0833374 0)
(8.61729 -0.0784893 0)
(8.41163 -0.0714467 0)
(8.22731 -0.0635371 0)
(8.06397 -0.055852 0)
(7.92015 -0.0489343 0)
(7.79452 -0.0429684 0)
(7.68462 -0.0374081 0)
(7.58864 -0.0322153 0)
(7.5045 -0.0275309 0)
(7.43099 -0.0234732 0)
(7.36585 -0.0202372 0)
(7.30695 -0.0175211 0)
(7.25446 -0.0157316 0)
(-0.00272422 0.0073543 -7.9414e-19)
(-0.0128243 0.0123215 9.0748e-19)
(-0.0268084 0.0133083 -6.27989e-19)
(-0.0413587 0.0114014 -1.92599e-19)
(-0.0519453 0.0058887 2.99685e-19)
(-0.0513513 -0.00328802 -7.48012e-20)
(-0.0361593 -0.0158559 -7.5334e-20)
(-0.00967923 -0.0291762 3.87762e-19)
(0.0253342 -0.0393647 -1.84471e-19)
(0.0658396 -0.0444594 4.35429e-20)
(0.108646 -0.0449976 1.40409e-20)
(0.150361 -0.0421853 -1.51247e-19)
(0.188285 -0.0370805 2.11063e-19)
(0.22077 -0.0305114 2.15718e-19)
(0.246956 -0.0230476 1.8598e-20)
(0.266427 -0.0150563 7.8627e-20)
(0.278847 -0.00673254 3.10993e-20)
(0.284444 0.00198517 5.44543e-20)
(0.282081 0.01097 8.11559e-20)
(0.272014 0.0197058 8.84028e-21)
(0.25487 0.0274507 -3.04197e-20)
(0.231296 0.0334217 2.61699e-19)
(0.20222 0.0369206 -3.55529e-20)
(0.16905 0.0373372 3.1606e-19)
(0.13362 0.0342726 -7.43669e-20)
(0.0982206 0.0277304 3.32141e-19)
(0.0653567 0.0184293 2.03856e-19)
(0.0374879 0.00813066 1.66773e-19)
(0.0162641 -0.000459196 -8.51995e-19)
(0.00169728 -0.00534429 -1.79795e-19)
(-0.00754402 -0.00733053 -1.176e-18)
(-0.0122027 -0.00857308 6.72923e-19)
(-0.0115487 -0.0104669 4.84906e-19)
(-0.00479425 -0.0138537 -6.2855e-19)
(0.00887489 -0.0191663 -8.60006e-19)
(0.0302446 -0.0255543 -4.12055e-20)
(0.0581735 -0.0307714 1.67824e-19)
(0.0887103 -0.0320646 3.19691e-19)
(0.116917 -0.0288087 1.87237e-19)
(0.138482 -0.0221553 3.90795e-19)
(0.151231 -0.0143897 1.47659e-19)
(0.155798 -0.00771465 3.85216e-20)
(0.154418 -0.00350881 -5.13875e-19)
(0.150541 -0.0025666 -1.07028e-19)
(0.147286 -0.00582839 2.23694e-19)
(0.144309 -0.0132746 1.16269e-20)
(0.136827 -0.0223078 5.48652e-19)
(0.118223 -0.0247162 1.86624e-19)
(0.0828684 -0.0119108 8.60078e-20)
(0.0231678 0.00935782 -7.42992e-19)
(-0.0666802 0.0283534 4.03822e-19)
(-0.166514 0.0508538 2.26717e-20)
(-0.277628 0.0735642 2.28246e-19)
(-0.399712 0.0904475 1.42702e-19)
(-0.529198 0.100019 4.68286e-20)
(-0.660864 0.106163 9.53435e-20)
(-0.790691 0.109234 1.15511e-19)
(-0.917775 0.108058 -1.16132e-19)
(-1.03887 0.102917 4.35187e-20)
(-1.15301 0.0956283 4.68283e-20)
(-1.25904 0.0889306 -1.07197e-19)
(-1.35658 0.0807671 -6.82052e-20)
(-1.44653 0.0717926 5.18065e-20)
(-1.52847 0.0653395 6.07338e-20)
(-1.60395 0.0602041 1.67475e-20)
(-1.67367 0.0550931 -6.35765e-20)
(-1.73815 0.0505385 6.92739e-21)
(-1.79798 0.0465124 3.2556e-21)
(-1.8538 0.0430575 1.61539e-20)
(-1.90612 0.0400747 7.85209e-20)
(-1.95539 0.0374532 -3.89328e-21)
(-2.00197 0.035176 -5.63076e-20)
(-2.04619 0.0331517 6.0449e-20)
(-2.08828 0.0313553 2.19586e-20)
(-2.12847 0.0297307 -3.5427e-20)
(-2.1669 0.0282545 2.93679e-20)
(-2.20373 0.0268902 -4.50945e-21)
(-2.23904 0.0256221 5.63878e-20)
(-2.27292 0.0244243 2.59305e-20)
(-2.30545 0.0232864 -3.8234e-20)
(-2.33665 0.0221907 -1.09077e-20)
(-2.36658 0.0211311 2.15589e-21)
(-2.39525 0.0200941 4.27922e-20)
(-2.4227 0.0190749 5.30806e-20)
(-2.44892 0.0180661 4.66945e-20)
(-2.47392 0.0170627 -4.73588e-20)
(-2.4977 0.0160605 1.00687e-19)
(-2.52026 0.0150555 -3.99519e-21)
(-2.5416 0.0140449 7.20874e-20)
(-2.56172 0.0130232 -1.02055e-19)
(-2.58058 0.0119844 -5.47018e-20)
(-2.5981 0.0109289 4.59507e-20)
(-2.61421 0.00985037 6.6765e-20)
(-2.62889 0.00874883 -1.01201e-20)
(-2.64212 0.00761944 -6.26448e-20)
(-2.65387 0.00645601 -6.21584e-20)
(-2.66409 0.00525805 6.37123e-20)
(-2.67273 0.00402384 -3.42974e-20)
(-2.67975 0.00278001 -8.1747e-20)
(-2.68509 0.00157205 -3.55937e-20)
(-2.68871 0.00050025 8.77717e-20)
(-2.69064 -0.000364521 4.40346e-20)
(-2.69136 -0.0010899 6.57495e-20)
(-2.69081 -0.00177934 -4.0151e-20)
(-2.68904 -0.00244096 1.27696e-20)
(-2.68605 -0.00308376 4.4277e-21)
(-2.68185 -0.00371161 -8.09946e-21)
(-2.67645 -0.00431925 -1.75014e-20)
(-2.66984 -0.00491405 -2.62014e-20)
(-2.66203 -0.00548631 -4.24752e-20)
(-2.65305 -0.00604716 -5.79619e-20)
(-2.64288 -0.00658498 3.05499e-20)
(-2.63155 -0.00711347 -4.2437e-20)
(-2.61905 -0.0076205 -4.12989e-20)
(-2.6054 -0.0081208 7.23913e-20)
(-2.59061 -0.00860289 -4.25355e-21)
(-2.57468 -0.00908119 -4.59234e-20)
(-2.55763 -0.00954679 -4.7597e-20)
(-2.53945 -0.0100133 4.36809e-20)
(-2.52015 -0.0104738 3.24874e-21)
(-2.49971 -0.0109362 1.29694e-20)
(-2.47812 -0.0113955 -8.44297e-21)
(-2.45539 -0.0118556 -2.45333e-20)
(-2.43152 -0.0123163 2.06225e-20)
(-2.40652 -0.0127793 -1.80931e-20)
(-2.3804 -0.013247 1.62489e-20)
(-2.35314 -0.0137173 2.18393e-20)
(-2.32476 -0.0141957 -7.68066e-21)
(-2.29524 -0.0146768 2.10395e-20)
(-2.26459 -0.0151661 -1.82284e-20)
(-2.2328 -0.0156421 4.30553e-20)
(-2.1999 -0.0161145 -3.63657e-21)
(-2.16589 -0.0165674 -4.24652e-20)
(-2.13079 -0.0169891 9.51308e-21)
(-2.09463 -0.0173335 -2.09384e-21)
(-2.05745 -0.0175339 9.23724e-21)
(-2.01932 -0.0175285 8.64022e-21)
(-1.9803 -0.0174141 -3.44334e-21)
(-1.94034 -0.0176262 6.85781e-22)
(-1.89934 -0.0180929 -6.59044e-22)
(-1.85737 -0.0184831 2.04425e-20)
(-1.8145 -0.0188606 2.40569e-20)
(-1.77075 -0.0192186 -1.54504e-20)
(-1.72616 -0.0195591 -1.88643e-20)
(-1.68078 -0.0198817 -3.7036e-20)
(-1.63466 -0.0201861 -5.80011e-20)
(-1.58782 -0.0204724 -4.63742e-20)
(-1.54032 -0.0207412 -7.87885e-20)
(-1.49219 -0.0209885 4.0575e-20)
(-1.44348 -0.0212207 3.90901e-20)
(-1.39423 -0.0214292 6.95217e-20)
(-1.34448 -0.021622 5.30328e-20)
(-1.29428 -0.0217955 1.54247e-19)
(-1.24366 -0.0219495 1.06586e-20)
(-1.19267 -0.0220855 6.96075e-21)
(-1.14136 -0.0222075 -1.23382e-19)
(-1.08976 -0.0223156 1.98309e-19)
(-1.03791 -0.0224157 -1.19505e-19)
(-0.98583 -0.0225101 1.68313e-20)
(-0.933538 -0.0226031 6.16059e-20)
(-0.881053 -0.0226974 2.27225e-20)
(-0.82838 -0.0227962 5.84256e-20)
(-0.775524 -0.0229012 2.78995e-19)
(-0.722485 -0.0230145 1.38571e-19)
(-0.669267 -0.0231367 6.58732e-20)
(-0.615869 -0.0232697 9.38573e-20)
(-0.562294 -0.0234161 2.66478e-19)
(-0.508538 -0.0235793 -1.1722e-20)
(-0.4546 -0.0237622 3.1023e-19)
(-0.400469 -0.0239672 4.49781e-19)
(-0.346144 -0.0241935 4.3965e-19)
(-0.291625 -0.0244362 -1.60825e-20)
(-0.236937 -0.0246929 4.18424e-20)
(-0.182138 -0.0249655 -9.94571e-20)
(-0.127374 -0.0251952 -1.25439e-18)
(-0.0729487 -0.0252508 6.24819e-19)
(-0.0191242 -0.024903 4.62966e-19)
(0.0308003 -0.0233621 -8.94792e-19)
(0.0861707 -0.0205222 -8.11847e-19)
(0.101604 -0.00894691 1.18828e-18)
(-0.000513187 0.0202416 2.21623e-18)
(-0.00628263 0.0366431 -1.69904e-18)
(-0.0138486 0.0375088 -7.22868e-19)
(-0.0152784 0.0282352 2.06022e-18)
(-0.00260795 0.00663666 4.42152e-19)
(0.0261757 -0.0301256 1.89051e-19)
(0.0647984 -0.0713848 -1.17993e-19)
(0.109098 -0.105219 -4.33921e-19)
(0.155071 -0.126047 -2.44917e-20)
(0.199162 -0.133484 -3.11991e-19)
(0.239208 -0.13017 1.66351e-20)
(0.274279 -0.119499 -4.34651e-21)
(0.30405 -0.104349 9.67923e-20)
(0.328541 -0.0867996 1.39081e-20)
(0.347959 -0.068185 -3.03029e-20)
(0.362611 -0.0492907 -2.54552e-19)
(0.372877 -0.0304743 -5.51158e-20)
(0.378928 -0.0118945 2.42697e-19)
(0.381745 0.00646849 -2.81804e-19)
(0.381213 0.0244752 7.89945e-20)
(0.376937 0.0418073 7.1949e-21)
(0.36842 0.0579118 1.58301e-19)
(0.355087 0.0720488 1.87842e-19)
(0.336461 0.0832188 1.65742e-19)
(0.312311 0.0902918 2.26053e-19)
(0.282871 0.0921721 -1.37338e-19)
(0.249021 0.0881342 3.7639e-20)
(0.212424 0.0782623 5.33555e-20)
(0.175433 0.0636432 -2.37448e-19)
(0.140959 0.0460766 -1.97648e-19)
(0.112167 0.0271928 -3.89011e-19)
(0.0923781 0.00794609 -1.45803e-19)
(0.0831837 -0.0117332 -1.24418e-18)
(0.0858674 -0.0308617 4.70216e-19)
(0.0987361 -0.0500863 -5.7254e-19)
(0.118593 -0.0675022 5.63474e-19)
(0.139546 -0.0767587 -4.44339e-19)
(0.155873 -0.0732027 1.07771e-19)
(0.164668 -0.0589347 2.57083e-19)
(0.165303 -0.0392372 -2.05006e-19)
(0.158251 -0.0201617 1.8668e-19)
(0.144588 -0.00653611 -8.32625e-20)
(0.124561 0.0015651 -3.57635e-19)
(0.0940986 0.00778191 -1.20224e-18)
(0.0453881 0.0181796 -1.0713e-18)
(-0.0354974 0.0435496 1.07682e-20)
(-0.146141 0.0828853 -6.98517e-19)
(-0.272062 0.12542 -1.30066e-19)
(-0.405264 0.167626 3.40444e-19)
(-0.544197 0.204633 4.11955e-19)
(-0.686461 0.233308 8.16749e-20)
(-0.827 0.254059 -3.05871e-20)
(-0.963992 0.26696 -2.83876e-20)
(-1.09452 0.271617 -8.463e-20)
(-1.21636 0.268446 -6.10139e-20)
(-1.32661 0.259429 -1.51373e-19)
(-1.42531 0.24617 -1.70531e-19)
(-1.51314 0.22983 -3.72539e-20)
(-1.59095 0.211956 2.41587e-20)
(-1.65979 0.193788 -1.19661e-19)
(-1.72077 0.176537 8.97786e-20)
(-1.77598 0.160395 -3.83065e-20)
(-1.82597 0.145605 -1.51278e-19)
(-1.87192 0.132473 1.15603e-20)
(-1.91438 0.120926 1.07912e-19)
(-1.95394 0.110859 -4.13181e-20)
(-1.99111 0.102112 4.54755e-21)
(-2.02632 0.0945341 -9.4873e-20)
(-2.05981 0.0879442 3.25655e-20)
(-2.09178 0.0821921 -5.5373e-20)
(-2.1224 0.0771307 9.88195e-22)
(-2.15178 0.0726425 -6.80866e-20)
(-2.18001 0.0686209 2.19884e-21)
(-2.20715 0.0649824 -4.0217e-20)
(-2.23325 0.0616525 5.31906e-20)
(-2.25836 0.0585768 -9.16729e-20)
(-2.2825 0.0557043 1.19227e-20)
(-2.30569 0.0530005 -9.2421e-20)
(-2.32794 0.0504299 3.63128e-21)
(-2.34925 0.0479714 7.28505e-20)
(-2.36965 0.0456009 1.42893e-20)
(-2.38911 0.0433054 -4.27031e-20)
(-2.40764 0.0410678 -6.38813e-20)
(-2.42523 0.038878 3.65953e-20)
(-2.44188 0.0367253 1.0321e-19)
(-2.45756 0.0346008 -3.26651e-20)
(-2.47226 0.0324966 -1.11947e-21)
(-2.48597 0.030406 -2.75561e-21)
(-2.49869 0.0283221 6.61345e-20)
(-2.51043 0.0262368 2.3217e-19)
(-2.52113 0.0241467 5.05782e-20)
(-2.53076 0.0220492 9.48732e-20)
(-2.53928 0.0199455 -2.0589e-19)
(-2.5467 0.0178396 -9.90771e-20)
(-2.55303 0.0157344 6.45014e-20)
(-2.55829 0.0136283 1.3129e-19)
(-2.5625 0.0115248 -7.2214e-20)
(-2.56571 0.00941796 -2.93936e-20)
(-2.56798 0.00732089 -5.06885e-20)
(-2.5694 0.00524829 7.36555e-20)
(-2.57005 0.00326892 -1.02277e-19)
(-2.56996 0.00143421 -7.68831e-20)
(-2.5687 -0.000281675 -4.95251e-20)
(-2.56628 -0.00194487 1.63584e-19)
(-2.56267 -0.0035636 -1.84294e-20)
(-2.55786 -0.00514932 1.15031e-20)
(-2.55187 -0.00670542 5.97866e-20)
(-2.54469 -0.00822801 1.28458e-19)
(-2.53633 -0.0097222 -1.74999e-20)
(-2.52681 -0.0111787 -4.89922e-20)
(-2.51613 -0.0126068 3.83814e-21)
(-2.5043 -0.0139949 -8.96937e-20)
(-2.49132 -0.0153555 9.67267e-20)
(-2.47722 -0.0166753 3.60234e-20)
(-2.46199 -0.0179681 2.8198e-20)
(-2.44565 -0.0192205 6.95206e-20)
(-2.42819 -0.0204472 8.29005e-20)
(-2.40963 -0.0216404 -4.29831e-20)
(-2.38996 -0.0228155 2.76651e-20)
(-2.36918 -0.023966 3.96407e-20)
(-2.34729 -0.0251005 4.74334e-20)
(-2.32427 -0.0262112 -5.38913e-21)
(-2.30013 -0.0273018 -2.05368e-21)
(-2.27487 -0.0283692 -3.72891e-20)
(-2.24849 -0.029415 -3.39884e-20)
(-2.22099 -0.0304401 -3.59312e-20)
(-2.19237 -0.0314415 3.46117e-20)
(-2.16264 -0.0324238 -4.79859e-21)
(-2.13178 -0.0333796 -1.96881e-20)
(-2.0998 -0.0343156 -3.95691e-21)
(-2.06671 -0.0352209 -2.14454e-20)
(-2.03252 -0.0361044 -2.63051e-20)
(-1.99723 -0.036956 -1.23949e-20)
(-1.96085 -0.0377839 5.91139e-21)
(-1.9234 -0.0385821 4.03482e-21)
(-1.88489 -0.0393696 3.62283e-21)
(-1.84531 -0.0401523 -2.58062e-21)
(-1.80465 -0.0409313 6.8667e-21)
(-1.76298 -0.0416676 -1.3816e-22)
(-1.72039 -0.0423294 7.50679e-21)
(-1.6769 -0.0429202 -8.13902e-21)
(-1.63252 -0.0434559 1.29354e-20)
(-1.58728 -0.0439357 7.17316e-21)
(-1.54122 -0.044367 -1.59569e-20)
(-1.4944 -0.044746 -5.52131e-21)
(-1.44685 -0.045079 -3.06912e-20)
(-1.39861 -0.0453605 -2.02806e-20)
(-1.34972 -0.0456012 4.6549e-20)
(-1.30024 -0.0457905 7.83565e-20)
(-1.25019 -0.0459445 -1.12016e-19)
(-1.19963 -0.0460507 3.54467e-20)
(-1.14857 -0.0461171 7.19929e-21)
(-1.09709 -0.0461406 -2.08868e-19)
(-1.0452 -0.046124 5.26853e-21)
(-0.99296 -0.0460652 3.40115e-21)
(-0.940401 -0.0459735 -7.29317e-20)
(-0.887563 -0.0458491 9.45031e-20)
(-0.834474 -0.0457016 1.3609e-19)
(-0.781161 -0.0455347 1.44575e-19)
(-0.727641 -0.0453564 1.31029e-19)
(-0.67393 -0.045171 -1.98647e-19)
(-0.620034 -0.0449848 2.58349e-20)
(-0.565954 -0.0448009 -5.66371e-20)
(-0.51169 -0.0446211 1.56096e-19)
(-0.457241 -0.0444458 -4.84353e-20)
(-0.402603 -0.0442749 2.00664e-19)
(-0.347776 -0.0441107 -2.0427e-19)
(-0.292754 -0.043955 -3.2437e-19)
(-0.23753 -0.0438115 -5.06852e-19)
(-0.182095 -0.0436792 -2.44893e-19)
(-0.12644 -0.0435587 -1.13452e-19)
(-0.0705654 -0.0434365 5.58514e-20)
(-0.0144912 -0.0432879 3.48462e-20)
(0.0417081 -0.0430583 -4.07592e-19)
(0.0979369 -0.0426839 -3.76602e-19)
(0.153962 -0.0420391 5.17027e-19)
(0.209766 -0.0408856 6.2825e-19)
(0.263224 -0.0387359 5.85805e-19)
(0.319567 -0.0348676 2.93298e-19)
(0.354733 -0.0231654 -6.27488e-19)
(0.000171299 0.0234826 2.85815e-19)
(0.000170664 0.0422602 2.70824e-18)
(0.00475129 0.0351013 2.81705e-18)
(0.0236553 0.00254838 -1.90278e-18)
(0.0620514 -0.0563099 3.32948e-19)
(0.112564 -0.122327 -1.50488e-19)
(0.164841 -0.175206 -6.08599e-20)
(0.211859 -0.20577 4.58947e-19)
(0.250915 -0.214774 3.56608e-19)
(0.281943 -0.207458 2.94358e-19)
(0.306104 -0.189655 1.322e-19)
(0.324817 -0.166093 1.25213e-19)
(0.339281 -0.139961 -3.99358e-19)
(0.35034 -0.113159 -2.48215e-19)
(0.35855 -0.0867076 8.93715e-20)
(0.364285 -0.0610941 -1.94141e-19)
(0.36781 -0.0365 1.9064e-19)
(0.369314 -0.0129964 2.88527e-20)
(0.369042 0.00944033 2.83816e-19)
(0.367309 0.0309713 2.47897e-19)
(0.364364 0.0517346 -2.35095e-19)
(0.360371 0.0716629 -6.34723e-19)
(0.355227 0.0904057 -1.14764e-19)
(0.348526 0.107241 -7.44438e-19)
(0.339559 0.121082 1.68307e-19)
(0.32745 0.130538 2.67297e-19)
(0.311397 0.134138 -1.09923e-19)
(0.291072 0.130677 3.94518e-19)
(0.267037 0.119625 2.25588e-19)
(0.240923 0.101295 5.4156e-19)
(0.215374 0.0767951 -2.99683e-19)
(0.193432 0.0475488 -2.15543e-19)
(0.177936 0.0151866 1.24369e-19)
(0.169205 -0.0191198 -1.53071e-19)
(0.166285 -0.0527793 -2.03058e-19)
(0.162909 -0.0765921 -1.18294e-20)
(0.152017 -0.0802014 -5.55363e-19)
(0.132903 -0.0645722 1.85812e-19)
(0.106821 -0.0378716 -4.80046e-19)
(0.0735205 -0.00596007 -1.7489e-19)
(0.0316847 0.0269771 1.78739e-19)
(-0.0261866 0.0571581 -1.72668e-19)
(-0.109029 0.0914883 -2.62848e-19)
(-0.211965 0.136788 5.42341e-19)
(-0.332116 0.188724 4.63096e-19)
(-0.464586 0.242336 -2.48293e-19)
(-0.601921 0.294357 9.33483e-20)
(-0.738629 0.339717 -9.33778e-20)
(-0.86995 0.376305 -1.45381e-19)
(-0.992137 0.403487 -6.36223e-20)
(-1.1028 0.419855 -6.30609e-20)
(-1.20118 0.425804 1.12084e-19)
(-1.28658 0.422018 1.82024e-20)
(-1.35954 0.409452 7.95307e-20)
(-1.42168 0.389818 8.80325e-21)
(-1.47511 0.365517 9.85162e-21)
(-1.52207 0.338767 4.16604e-20)
(-1.56411 0.311155 6.40709e-20)
(-1.60274 0.284002 -1.07701e-20)
(-1.63912 0.258271 2.05614e-19)
(-1.67387 0.23469 1.47587e-19)
(-1.70754 0.213505 3.41476e-20)
(-1.74039 0.194642 7.60971e-20)
(-1.77254 0.178201 -1.76998e-19)
(-1.80397 0.163964 2.61581e-20)
(-1.83463 0.151591 1.02414e-19)
(-1.86456 0.140821 -1.6435e-19)
(-1.89374 0.131417 -7.44584e-20)
(-1.92217 0.123159 4.99987e-20)
(-1.94984 0.115853 3.91337e-20)
(-1.97673 0.109328 -8.30368e-20)
(-2.00285 0.103447 1.4342e-19)
(-2.0282 0.0980895 1.67553e-20)
(-2.05277 0.0931592 5.17505e-20)
(-2.07656 0.0885759 -1.69889e-19)
(-2.09958 0.0842758 1.64574e-19)
(-2.12181 0.080205 3.45935e-20)
(-2.14327 0.0763218 -7.14237e-20)
(-2.16394 0.0725899 -1.30168e-19)
(-2.18381 0.0689817 -6.46708e-20)
(-2.20289 0.0654732 1.03902e-20)
(-2.22116 0.062046 2.80096e-20)
(-2.2386 0.0586836 -1.32443e-20)
(-2.25521 0.0553729 -9.91701e-20)
(-2.27097 0.052103 -2.73099e-20)
(-2.28586 0.0488634 -3.01974e-20)
(-2.29986 0.0456462 1.81241e-20)
(-2.31296 0.0424428 -6.29433e-20)
(-2.32515 0.039248 -9.05326e-20)
(-2.33642 0.0360551 -1.11712e-19)
(-2.34674 0.0328612 3.61347e-20)
(-2.35608 0.0296649 -1.32372e-19)
(-2.36439 0.02647 1.28985e-19)
(-2.37169 0.0232853 1.12007e-20)
(-2.37797 0.0201178 -3.05634e-20)
(-2.38323 0.0169793 -5.7018e-20)
(-2.38747 0.013879 1.97349e-20)
(-2.3907 0.0108348 9.53122e-20)
(-2.39293 0.00786116 7.86085e-20)
(-2.39414 0.00497282 3.49075e-20)
(-2.3943 0.0021642 4.19011e-20)
(-2.39336 -0.00059573 2.0902e-20)
(-2.39127 -0.00331448 1.935e-20)
(-2.38803 -0.00597959 -2.67754e-19)
(-2.38363 -0.0085891 5.26153e-20)
(-2.37808 -0.0111471 4.75834e-20)
(-2.37138 -0.0136503 -9.23142e-20)
(-2.36353 -0.0161003 7.83708e-20)
(-2.35455 -0.0184928 -2.60011e-20)
(-2.34445 -0.0208291 1.12292e-19)
(-2.33323 -0.0231069 8.14032e-20)
(-2.32091 -0.0253282 5.70381e-20)
(-2.30749 -0.0274929 -3.74152e-20)
(-2.29298 -0.0296029 4.49739e-20)
(-2.27739 -0.0316591 2.87916e-20)
(-2.26072 -0.0336631 -3.45051e-20)
(-2.24298 -0.0356189 -5.14356e-20)
(-2.22416 -0.0375314 1.59759e-19)
(-2.20428 -0.039407 2.36438e-20)
(-2.18331 -0.0412482 -5.39887e-20)
(-2.16125 -0.0430589 -1.34719e-19)
(-2.13811 -0.0448365 -1.69406e-20)
(-2.11387 -0.0465827 -1.12081e-21)
(-2.08853 -0.0482953 -4.61785e-20)
(-2.06209 -0.0499757 4.79753e-21)
(-2.03455 -0.0516224 3.58515e-20)
(-2.00591 -0.0532351 -9.72459e-20)
(-1.97615 -0.0548127 3.18644e-20)
(-1.94529 -0.0563528 1.23482e-20)
(-1.91332 -0.0578542 4.66089e-20)
(-1.88024 -0.0593104 -1.23605e-20)
(-1.84606 -0.0607197 2.49813e-20)
(-1.81079 -0.0620757 5.82663e-20)
(-1.77445 -0.0633763 5.46901e-21)
(-1.73703 -0.0646116 -1.82527e-20)
(-1.69857 -0.0657814 4.03966e-21)
(-1.65906 -0.0668911 2.35502e-21)
(-1.61853 -0.0679572 -2.14758e-21)
(-1.57703 -0.0689852 1.77395e-22)
(-1.53463 -0.0699504 -7.72418e-22)
(-1.49134 -0.0708249 3.25477e-21)
(-1.44719 -0.0716125 -3.39952e-20)
(-1.40221 -0.0723107 -4.9701e-21)
(-1.35644 -0.0729253 -5.57691e-21)
(-1.30993 -0.0734541 -1.14778e-20)
(-1.26271 -0.0739028 5.54304e-20)
(-1.21484 -0.0742681 -1.65021e-20)