/*--------------------------------*- C++ -*----------------------------------*\
  =========                 |
  \\      /  F ield         | OpenFOAM: The Open Source CFD Toolbox
   \\    /   O peration     | Website:  https://openfoam.org
    \\  /    A nd           | Version:  13
     \\/     M anipulation  |
\*---------------------------------------------------------------------------*/
FoamFile
{
    format      ascii;
    class       volScalarField;
    location    "2000";
    object      k;
}
// * * * * * * * * * * * * * * * * * * * * * * * * * * * * * * * * * * * * * //

dimensions      [0 2 -2 0 0 0 0];

internalField   nonuniform List<scalar> 
12225
(
0.676137
1.26933
1.52177
1.60575
1.25329
2.89819
3.4511
2.48949
1.71241
2.88473
1.92473
1.54146
2.53837
2.33955
3.19493
3.1522
2.48682
1.62192
0.187261
0.158582
0.0973459
0.19752
0.0283355
0.199405
0.0193484
0.181317
0.0173251
0.217992
0.0273442
0.0299622
0.0293947
0.033191
0.0416045
0.0543869
0.0676329
0.0772701
0.345903
0.172484
0.0806331
0.0546024
0.0451473
0.046086
0.0294522
0.0312688
0.0104151
0.0288777
0.00501409
0.00700511
0.00893828
0.010844
0.0121834
0.0143671
0.0146485
0.0167009
0.421036
0.26768
0.140403
0.0822471
0.0337637
0.0426671
0.0503221
0.016893
0.0209493
0.0124694
0.00943571
0.00829831
0.00598155
0.00501148
0.0174717
0.0241594
0.0465108
0.0255293
0.387705
0.3122
0.199443
0.112352
0.0760249
0.0497873
0.0548398
0.0735344
0.053253
0.0445211
0.0511887
0.0705105
0.0404548
0.063625
0.0613225
0.0688761
0.0771948
0.07029
0.381797
0.361636
0.309911
0.264587
0.20426
0.247946
0.0933517
0.0693484
0.0645369
0.0938676
0.148428
0.113503
0.13916
0.153626
0.157402
0.1547
0.155845
0.148811
0.374631
0.362778
0.346991
0.329939
0.309371
0.300319
0.2833
0.266908
0.27087
0.269456
0.268672
0.266075
0.261771
0.256537
0.251965
0.246109
0.243605
0.237884
0.373164
0.365897
0.360188
0.353892
0.347784
0.342057
0.337766
0.333769
0.329397
0.325275
0.3213
0.316874
0.312096
0.307188
0.303733
0.298669
0.296128
0.291465
0.374301
0.368766
0.365544
0.362165
0.358926
0.355844
0.353121
0.350555
0.347422
0.34438
0.340993
0.337484
0.334113
0.330523
0.327857
0.324504
0.322531
0.319568
0.374349
0.370989
0.368347
0.365721
0.363223
0.360893
0.358745
0.35667
0.354379
0.35198
0.349467
0.346826
0.34437
0.341809
0.339751
0.33748
0.335866
0.33383
0.374003
0.371514
0.369206
0.366981
0.364863
0.36284
0.360949
0.359099
0.357216
0.355261
0.353293
0.351253
0.34934
0.347411
0.345746
0.344044
0.342676
0.341149
0.373882
0.371568
0.369379
0.367285
0.3653
0.363408
0.361628
0.359895
0.3582
0.356484
0.3548
0.353095
0.351482
0.349887
0.348448
0.347024
0.345793
0.344508
0.373843
0.371564
0.369409
0.367358
0.365416
0.363568
0.361825
0.360149
0.358541
0.356961
0.355434
0.353929
0.352496
0.351099
0.3498
0.348538
0.347388
0.346245
0.373831
0.371557
0.369407
0.367365
0.365432
0.363593
0.361854
0.360194
0.358616
0.357096
0.355642
0.354238
0.352899
0.351609
0.350389
0.349217
0.348115
0.347051
0.373827
0.371554
0.369401
0.367358
0.365423
0.363584
0.36184
0.36018
0.358603
0.357098
0.355664
0.354293
0.352987
0.351738
0.350548
0.349412
0.348329
0.347296
0.373826
0.371552
0.369396
0.367352
0.365412
0.363571
0.361822
0.36016
0.358579
0.357074
0.35564
0.354275
0.352972
0.351732
0.350546
0.349418
0.348338
0.347311
0.373825
0.37155
0.369393
0.367346
0.365405
0.363561
0.361809
0.360144
0.35856
0.357052
0.355616
0.354248
0.352945
0.351701
0.350516
0.349385
0.348306
0.347275
0.373825
0.371549
0.369391
0.367343
0.3654
0.363554
0.361801
0.360134
0.358548
0.357038
0.3556
0.35423
0.352924
0.351679
0.350492
0.349358
0.348278
0.347245
0.373825
0.371549
0.36939
0.367343
0.365399
0.363554
0.361799
0.360131
0.358544
0.357033
0.355595
0.354223
0.352917
0.35167
0.350482
0.349347
0.348266
0.347232
0.373826
0.37155
0.369393
0.367346
0.365404
0.363559
0.361806
0.360138
0.358553
0.357041
0.355604
0.354232
0.352926
0.351679
0.350491
0.349355
0.348274
0.347239
0.373824
0.371554
0.369398
0.367354
0.365409
0.363564
0.361808
0.360139
0.358548
0.357035
0.355591
0.354218
0.352908
0.351661
0.350468
0.349333
0.348244
0.34721
0.373816
0.371569
0.369406
0.367347
0.365375
0.363506
0.361713
0.360008
0.358369
0.356816
0.355328
0.353925
0.352585
0.351319
0.350104
0.348958
0.347844
0.346803
0.373803
0.371624
0.369325
0.367184
0.365029
0.363018
0.360985
0.359072
0.357158
0.355399
0.353668
0.352115
0.350621
0.34926
0.34795
0.346785
0.345587
0.344599
0.373883
0.371504
0.368845
0.36647
0.363454
0.360786
0.357657
0.354979
0.351977
0.349557
0.346909
0.344871
0.342697
0.340952
0.339391
0.338154
0.336695
0.336359
0.373896
0.371465
0.368927
0.364968
0.357978
0.352311
0.345178
0.340001
0.333441
0.329196
0.323764
0.319537
0.314901
0.311098
0.308806
0.303955
0.30265
0.304676
0.373904
0.371655
0.369518
0.356068
0.336436
0.315538
0.294451
0.279742
0.267405
0.257614
0.249152
0.242019
0.236178
0.233912
0.223212
0.221241
0.224268
0.218879
0.373813
0.372195
0.362501
0.312163
0.229698
0.166878
0.129957
0.100357
0.0806671
0.0652813
0.0638163
0.0595593
0.0564279
0.0533289
0.0620455
0.0755816
0.0739796
0.0813063
0.376717
0.37472
0.30323
0.203265
0.129267
0.0953224
0.069688
0.0504651
0.027174
0.0333196
0.0312352
0.0299327
0.0261285
0.0318617
0.0507854
0.0792388
0.105743
0.131881
0.404062
0.386115
0.273564
0.255293
0.185079
0.252591
0.251878
0.207989
0.184878
0.180718
0.182783
0.197909
0.217618
0.26735
0.318192
0.373608
0.437721
0.497242
0.938584
1.28082
1.48366
1.58281
1.61312
1.59931
1.5716
1.52331
1.47058
1.41919
1.37175
1.32741
1.28842
1.25512
1.22789
1.20648
1.18924
1.17801
1.50426e-08
3.7332e-07
1.91333e-06
7.55684e-06
2.53439e-05
7.68255e-05
0.000206221
0.000418314
0.000689337
0.000980813
0.00124859
0.00146167
0.00160898
0.00167894
0.00166856
0.00160583
0.00149669
0.00131023
0.00111176
0.000949222
0.000797632
0.00065223
0.000509239
0.0003766
0.000254239
0.000155089
8.55152e-05
4.39638e-05
2.22989e-05
1.17549e-05
6.69245e-06
4.3621e-06
3.69777e-06
5.78143e-06
1.14205e-05
2.61743e-05
0.000157419
0.000326884
0.00069953
0.00100862
0.00105882
0.00096301
0.00075278
0.000629434
0.000630897
0.000741342
0.000930779
0.00145191
0.00244827
0.00585952
0.017202
0.0471812
0.0872846
0.110479
0.124521
0.131821
0.149942
0.149011
0.144076
0.134009
0.14607
0.160555
0.176188
0.143387
0.172347
0.173162
0.184591
0.19201
0.200244
0.208181
0.215921
0.223603
0.231137
0.238604
0.245972
0.253278
0.260508
0.267682
0.274791
0.281848
0.288847
0.295795
0.302686
0.309526
0.316308
0.323037
0.329703
0.336311
0.342849
0.349323
0.355719
0.362032
0.368253
0.37437
0.380374
0.386252
0.391993
0.39758
0.403005
0.40825
0.413317
0.418206
0.422951
0.427611
0.432119
0.436457
0.440635
0.444645
0.448479
0.45214
0.455611
0.458901
0.46199
0.46489
0.46758
0.470075
0.472355
0.474433
0.476296
0.477955
0.4794
0.48064
0.481668
0.482497
0.483128
0.483579
0.483851
0.483923
0.48374
0.483623
0.482713
0.482398
0.480945
0.480494
0.478429
0.477343
0.475651
0.473824
0.471848
0.469673
0.467352
0.46487
0.462248
0.459497
0.456626
0.453648
0.450555
0.447374
0.444093
0.440733
0.437279
0.433767
0.430163
0.426518
0.422806
0.419046
0.415254
0.41142
0.40756
0.403718
0.399898
0.396111
0.392367
0.388675
0.385039
0.381467
0.377967
0.374547
0.371213
0.367973
0.36483
0.361787
0.358831
0.355931
0.35304
0.350063
0.346872
0.343196
0.338527
0.323657
7.6316e-08
2.16466e-06
1.45273e-05
6.17017e-05
0.000227863
0.000648809
0.00154624
0.0028419
0.00437375
0.00597219
0.00746201
0.00870939
0.00966011
0.0102759
0.0106239
0.0106136
0.0104767
0.0102034
0.00969585
0.00898667
0.00805292
0.00696706
0.00572306
0.00448736
0.00318234
0.00214934
0.00138504
0.000863546
0.000525183
0.000315209
0.000193306
0.000127529
9.8431e-05
0.000110113
0.000165714
0.000229277
0.00164144
0.00340161
0.00673474
0.00948305
0.0108955
0.0108005
0.0102963
0.0103073
0.0116279
0.0154846
0.0207588
0.0299082
0.0459366
0.0714602
0.0956214
0.12033
0.139331
0.151957
0.162845
0.178191
0.195849
0.211423
0.229149
0.245457
0.264204
0.282558
0.302834
0.318714
0.340709
0.357952
0.377187
0.395194
0.413296
0.431087
0.448706
0.46617
0.483499
0.500721
0.517853
0.53491
0.551906
0.568847
0.585741
0.60259
0.619399
0.636167
0.652895
0.66958
0.686222
0.702818
0.719363
0.735853
0.752282
0.76865
0.784943
0.80115
0.817254
0.833241
0.849092
0.864787
0.880304
0.895617
0.910695
0.925505
0.94001
0.954159
0.967908
0.981218
0.994261
1.00701
1.01948
1.03164
1.04349
1.055
1.06616
1.07696
1.08738
1.0974
1.10702
1.11621
1.12497
1.13327
1.14113
1.14852
1.15543
1.16185
1.16778
1.17321
1.17814
1.18257
1.18648
1.18988
1.19276
1.19525
1.19718
1.19855
1.19917
1.19973
1.19961
1.1996
1.19892
1.19805
1.1967
1.19486
1.19255
1.18979
1.1866
1.183
1.179
1.17463
1.16989
1.1648
1.15937
1.15361
1.14756
1.14118
1.13456
1.12764
1.12048
1.11309
1.10549
1.09769
1.08976
1.08173
1.07362
1.06547
1.0573
1.04912
1.04097
1.03285
1.02478
1.01679
1.0089
1.00112
0.993465
0.98595
0.978564
0.971266
0.963996
0.956615
0.9489
0.940567
0.92984
0.904836
1.83544e-07
5.44502e-06
4.1196e-05
0.000186714
0.00073181
0.00175559
0.00367579
0.00593937
0.00825042
0.0103794
0.0121839
0.0135993
0.0146149
0.0152498
0.0155767
0.0155716
0.0154504
0.0151586
0.0146881
0.0140898
0.0133598
0.0124958
0.0114823
0.0102973
0.00901293
0.00749826
0.00587801
0.00434548
0.00300159
0.00197501
0.00131447
0.000927681
0.000681969
0.000649077
0.000886462
0.00163609
0.00622942
0.0135657
0.0210514
0.0264231
0.0296048
0.0310026
0.0334625
0.0403429
0.0550377
0.0723131
0.0900177
0.110122
0.131289
0.150822
0.171414
0.19152
0.211344
0.232033
0.255429
0.282273
0.310073
0.338065
0.366623
0.39479
0.422731
0.450297
0.477659
0.50394
0.530327
0.555518
0.580543
0.604969
0.629086
0.65286
0.676382
0.699687
0.722816
0.745799
0.768661
0.79142
0.814088
0.836674
0.859183
0.881616
0.903973
0.926252
0.948451
0.970563
0.992584
1.01451
1.03633
1.05803
1.07961
1.10107
1.12238
1.14355
1.16454
1.18536
1.20597
1.22638
1.24654
1.26647
1.28612
1.3055
1.32459
1.34337
1.36185
1.38001
1.39783
1.41528
1.43235
1.44901
1.46524
1.48101
1.49632
1.51113
1.52544
1.53921
1.55244
1.56511
1.57719
1.58868
1.59955
1.60981
1.61943
1.6284
1.63671
1.64435
1.65132
1.6576
1.6632
1.66811
1.67232
1.67587
1.67868
1.68081
1.68223
1.68313
1.68338
1.6837
1.68287
1.6814
1.67926
1.67648
1.67307
1.66905
1.66444
1.65926
1.65355
1.64729
1.64054
1.6333
1.6256
1.61745
1.60889
1.59991
1.59056
1.58084
1.57078
1.56042
1.54979
1.53892
1.52785
1.51664
1.50531
1.4939
1.48245
1.47099
1.45954
1.44813
1.43679
1.42554
1.41441
1.40342
1.39262
1.382
1.37157
1.36133
1.35121
1.34112
1.33084
1.32012
1.30713
1.28403
6.95385e-07
2.08689e-05
0.000162845
0.000656072
0.00202921
0.00475763
0.00818887
0.0115863
0.014585
0.0169964
0.0187726
0.0199508
0.0206106
0.0208325
0.0207587
0.0204992
0.0200163
0.0194143
0.0187244
0.017966
0.0171418
0.0162508
0.0152805
0.0142091
0.0130268
0.0117062
0.0102393
0.00867954
0.00712061
0.00564142
0.00427751
0.00331876
0.00252242
0.00270145
0.00444284
0.0110323
0.024681
0.0375096
0.0475386
0.0551114
0.0625848
0.072454
0.085656
0.101298
0.116841
0.132532
0.149297
0.168827
0.189941
0.212295
0.237181
0.263321
0.291407
0.321301
0.353123
0.386186
0.419502
0.452783
0.485947
0.518601
0.55085
0.582552
0.613779
0.644315
0.674417
0.703909
0.733016
0.761722
0.790122
0.818253
0.846171
0.873912
0.90151
0.928988
0.956366
0.983656
1.01087
1.038
1.06505
1.09202
1.11891
1.1457
1.17239
1.19897
1.22543
1.25177
1.27796
1.30399
1.32987
1.35557
1.3811
1.40643
1.43155
1.45645
1.48111
1.50552
1.52967
1.55353
1.5771
1.60036
1.62329
1.64588
1.6681
1.68994
1.71135
1.73231
1.7528
1.7728
1.79227
1.81119
1.82954
1.84729
1.86443
1.88093
1.89677
1.91193
1.9264
1.94014
1.95315
1.96542
1.97692
1.98765
1.99758
2.00671
2.01504
2.02255
2.02923
2.03509
2.0401
2.04429
2.04764
2.05018
2.05188
2.05286
2.05321
2.05327
2.0521
2.05014
2.04739
2.04388
2.03962
2.03463
2.02894
2.02256
2.01552
2.00784
1.99955
1.99067
1.98124
1.97126
1.96077
1.94979
1.93836
1.92649
1.91421
1.90156
1.88858
1.8753
1.86179
1.84808
1.83422
1.82026
1.80623
1.79217
1.77812
1.76411
1.75016
1.73631
1.7226
1.70905
1.69571
1.68259
1.66972
1.65709
1.64468
1.63243
1.62018
1.6077
1.59344
1.5722
2.31826e-06
6.9504e-05
0.000518433
0.00203197
0.00560191
0.0107089
0.0155727
0.0195474
0.022436
0.0243027
0.0253277
0.0257186
0.0256549
0.0253463
0.024747
0.0240179
0.0232097
0.0223588
0.0214883
0.0206091
0.0197193
0.0188117
0.0178723
0.0168813
0.0158164
0.0146524
0.0133687
0.0119784
0.0105507
0.00917557
0.00779496
0.00647661
0.00692992
0.0107507
0.0225012
0.0413222
0.0591181
0.0738667
0.0856539
0.0961637
0.106922
0.118604
0.131143
0.144506
0.1593
0.177094
0.19786
0.221272
0.247381
0.275555
0.305805
0.337439
0.370482
0.404572
0.439512
0.474887
0.510353
0.545775
0.581074
0.616096
0.650848
0.685224
0.719252
0.752864
0.786129
0.819034
0.851646
0.883996
0.916132
0.94809
0.979907
1.01161
1.04323
1.07477
1.10625
1.13768
1.16905
1.20036
1.23161
1.26278
1.29387
1.32485
1.35573
1.38648
1.41709
1.44754
1.47783
1.50794
1.53785
1.56756
1.59705
1.62631
1.65533
1.68408
1.71255
1.74074
1.76861
1.79616
1.82337
1.85021
1.87666
1.9027
1.92829
1.95342
1.97804
2.00215
2.02569
2.04866
2.07101
2.09272
2.11377
2.13414
2.15378
2.17269
2.19083
2.20819
2.22475
2.24048
2.25537
2.2694
2.28255
2.29481
2.30617
2.31661
2.32612
2.33471
2.34235
2.34904
2.35477
2.35955
2.36338
2.36629
2.36825
2.36931
2.3697
2.36951
2.36811
2.36577
2.36253
2.35842
2.35345
2.34764
2.34103
2.33362
2.32546
2.31655
2.30694
2.29664
2.28569
2.27411
2.26194
2.24921
2.23594
2.22216
2.20792
2.19323
2.17816
2.16275
2.14705
2.13111
2.11499
2.09872
2.08236
2.06596
2.04955
2.03316
2.01683
2.0006
1.98451
1.9686
1.9529
1.93745
1.92228
1.90741
1.89284
1.87854
1.8644
1.85026
1.83478
1.81418
7.3345e-06
0.000215569
0.00155
0.00552006
0.012882
0.019573
0.0244726
0.0275871
0.0292968
0.030023
0.030051
0.0297437
0.0290579
0.0281656
0.0271701
0.026132
0.0250941
0.0240825
0.0231106
0.02218
0.0212824
0.0204049
0.0195278
0.0186254
0.0176718
0.0166393
0.0154821
0.0141642
0.0126615
0.011265
0.0112168
0.0132847
0.0211489
0.0381634
0.0605637
0.0818179
0.099221
0.112253
0.122194
0.131033
0.140279
0.150718
0.163554
0.179583
0.198783
0.221381
0.247123
0.275366
0.305658
0.337432
0.370459
0.40441
0.439171
0.474567
0.51048
0.546747
0.583243
0.619884
0.656604
0.693313
0.729967
0.766499
0.802894
0.83912
0.875184
0.911086
0.946849
0.982495
1.01805
1.05354
1.08898
1.1244
1.15981
1.19522
1.23062
1.26603
1.30142
1.33678
1.37211
1.40738
1.44257
1.47768
1.51267
1.54752
1.58223
1.61676
1.65111
1.68525
1.71916
1.75284
1.78626
1.81942
1.85229
1.88487
1.91712
1.94903
1.98059
2.01177
2.04254
2.07288
2.10277
2.13216
2.16104
2.18937
2.21713
2.24428
2.27079
2.29664
2.32178
2.3462
2.36986
2.39274
2.4148
2.43603
2.45639
2.47587
2.49444
2.51208
2.52876
2.54449
2.55922
2.57295
2.58567
2.59737
2.60803
2.61764
2.6262
2.6337
2.64013
2.6455
2.64982
2.6531
2.65533
2.65651
2.65692
2.65654
2.65493
2.65227
2.64861
2.64397
2.63837
2.63184
2.62439
2.61605
2.60684
2.5968
2.58596
2.57434
2.56198
2.5489
2.53515
2.52075
2.50575
2.49017
2.47405
2.45743
2.44037
2.42291
2.40511
2.38703
2.36873
2.35024
2.33164
2.31296
2.29425
2.27555
2.25689
2.23833
2.21989
2.20163
2.1836
2.16583
2.14837
2.13125
2.11449
2.0981
2.082
2.06608
2.04917
2.02823
2.31668e-05
0.000642159
0.00421929
0.0132593
0.0224144
0.0284689
0.0319016
0.0335948
0.0341751
0.0340482
0.0334685
0.0324787
0.0312899
0.0300001
0.0286878
0.0274087
0.0261994
0.0250778
0.0240477
0.0231009
0.0222216
0.0213877
0.020568
0.0197231
0.0188092
0.0178745
0.0170096
0.0163784
0.0164005
0.0181171
0.023993
0.0366557
0.0570938
0.0800946
0.101578
0.11889
0.1312
0.13979
0.146979
0.154694
0.164832
0.1784
0.195467
0.216127
0.240158
0.267122
0.296355
0.327205
0.359268
0.392271
0.426074
0.460561
0.495678
0.531373
0.567605
0.604318
0.641458
0.678967
0.716776
0.754825
0.79306
0.831428
0.869891
0.908418
0.946992
0.985603
1.02425
1.06295
1.1017
1.14053
1.17943
1.21843
1.25751
1.29669
1.33595
1.37527
1.41465
1.45406
1.49347
1.53285
1.57218
1.61143
1.65058
1.68959
1.72844
1.76711
1.80558
1.84381
1.88179
1.91951
1.95694
1.99406
2.03086
2.06732
2.10341
2.13911
2.1744
2.20925
2.24363
2.27752
2.31088
2.34367
2.37587
2.40744
2.43836
2.46859
2.49809
2.52683
2.55479
2.58192
2.6082
2.63359
2.65807
2.6816
2.70417
2.72575
2.74631
2.76583
2.78429
2.80168
2.81797
2.83314
2.8472
2.86011
2.87188
2.8825
2.89196
2.90025
2.90737
2.91332
2.91812
2.92176
2.92426
2.92558
2.926
2.92547
2.92367
2.92073
2.91668
2.91154
2.90535
2.89812
2.88987
2.88063
2.87044
2.85931
2.84728
2.83437
2.82063
2.80609
2.79079
2.77477
2.75805
2.74069
2.72272
2.70419
2.68515
2.66566
2.64579
2.62558
2.6051
2.58441
2.56356
2.5426
2.52159
2.50055
2.47955
2.45861
2.4378
2.41715
2.39674
2.3766
2.35678
2.33734
2.31831
2.29971
2.28152
2.26362
2.24501
2.22306
6.9178e-05
0.00176924
0.0100438
0.0229226
0.0311066
0.035518
0.0376508
0.0383687
0.0381888
0.0374093
0.0361455
0.0346323
0.0330008
0.0313537
0.0297687
0.0282966
0.0269653
0.0257813
0.0247366
0.0238132
0.0229886
0.0222374
0.0215259
0.0208047
0.0201442
0.019723
0.0199185
0.0217325
0.0267011
0.0374253
0.0546336
0.0754318
0.0965217
0.115961
0.131705
0.142815
0.150493
0.15693
0.164793
0.175576
0.189906
0.207965
0.22953
0.254234
0.281509
0.310717
0.341279
0.372811
0.405128
0.438142
0.471818
0.506145
0.541128
0.576774
0.613087
0.65005
0.687627
0.725779
0.764461
0.80362
0.843205
0.883165
0.923457
0.964044
1.0049
1.046
1.08734
1.12891
1.17071
1.21274
1.255
1.29748
1.34019
1.3831
1.42621
1.46947
1.51287
1.55636
1.59991
1.64348
1.68703
1.73052
1.77391
1.81718
1.86028
1.9032
1.94589
1.98833
2.0305
2.07236
2.11391
2.15511
2.19595
2.2364
2.27643
2.31602
2.35514
2.39377
2.43186
2.46938
2.5063
2.54259
2.57819
2.61309
2.64724
2.68061
2.71316
2.74486
2.77566
2.80554
2.83446
2.86239
2.88929
2.91513
2.93989
2.96355
2.98608
3.00746
3.02766
3.04667
3.06447
3.08105
3.09638
3.11047
3.12331
3.13489
3.14519
3.15423
3.16198
3.16848
3.17372
3.1777
3.18043
3.18187
3.18229
3.18161
3.1796
3.17637
3.17192
3.1663
3.15952
3.1516
3.14257
3.13246
3.12128
3.10907
3.09587
3.0817
3.0666
3.0506
3.03376
3.01611
2.99769
2.97854
2.95871
2.93826
2.91723
2.89571
2.87374
2.85139
2.82872
2.8058
2.78267
2.7594
2.73604
2.71263
2.68922
2.66587
2.64262
2.61953
2.59666
2.57407
2.55182
2.52997
2.50856
2.48764
2.46719
2.44714
2.42655
2.40308
0.000180664
0.00422659
0.0189331
0.0316521
0.0383288
0.0415336
0.0427551
0.0427194
0.0418961
0.0404331
0.0386187
0.0366247
0.034594
0.032637
0.0308339
0.0292325
0.0278562
0.0267056
0.0257683
0.0250286
0.0244665
0.0241117
0.0240474
0.0244487
0.0256109
0.0280415
0.0326258
0.0411064
0.0543639
0.0709334
0.0892821
0.107691
0.124304
0.137884
0.148045
0.155776
0.163008
0.171794
0.183459
0.19864
0.21734
0.23928
0.263979
0.290894
0.319457
0.349177
0.379727
0.410951
0.44281
0.475313
0.508492
0.542386
0.577038
0.612484
0.648739
0.685805
0.723671
0.762316
0.801707
0.841801
0.882555
0.923921
0.965858
1.00833
1.05129
1.09473
1.13862
1.18294
1.22769
1.27285
1.31841
1.36436
1.41068
1.45734
1.50432
1.55157
1.59905
1.64671
1.6945
1.74235
1.79022
1.83805
1.88581
1.93344
1.98092
2.0282
2.07524
2.12201
2.16848
2.21462
2.2604
2.30581
2.3508
2.39536
2.43946
2.48306
2.52612
2.56863
2.61053
2.65179
2.69238
2.73224
2.77134
2.80964
2.84709
2.88366
2.91931
2.95399
2.98768
3.02032
3.05189
3.08234
3.11165
3.13977
3.1667
3.19239
3.21684
3.24001
3.26188
3.28244
3.30167
3.31956
3.33609
3.35126
3.36506
3.3775
3.38856
3.39825
3.40656
3.41352
3.41911
3.42335
3.42625
3.42776
3.42813
3.42725
3.425
3.42142
3.41656
3.41042
3.40303
3.39441
3.38459
3.37358
3.36142
3.34814
3.33376
3.31833
3.30187
3.28442
3.26603
3.24675
3.22662
3.20567
3.18398
3.16158
3.13856
3.11498
3.09091
3.0664
3.04152
3.01633
2.9909
2.96529
2.93954
2.91371
2.88785
2.86201
2.83627
2.81067
2.78529
2.76018
2.73542
2.71107
2.68718
2.66382
2.64098
2.61862
2.59585
2.57048
0.00040524
0.00864186
0.0280549
0.0394957
0.0449325
0.0472651
0.0477716
0.047105
0.045614
0.0435923
0.0412729
0.0388505
0.0364881
0.0343091
0.0323993
0.0308056
0.0295538
0.0286342
0.0280339
0.027767
0.0277933
0.0282894
0.029533
0.0321445
0.0369369
0.0446322
0.0554152
0.0686611
0.0835043
0.0991432
0.114446
0.128314
0.140057
0.149733
0.15807
0.166469
0.176449
0.189145
0.205016
0.224038
0.245877
0.270081
0.296166
0.32367
0.352196
0.381469
0.411353
0.441822
0.472914
0.504687
0.53721
0.570553
0.604775
0.639916
0.676014
0.713087
0.751142
0.790171
0.830155
0.871064
0.912863
0.955514
0.998978
1.04322
1.08819
1.13388
1.18025
1.22728
1.27494
1.32321
1.37208
1.42152
1.47149
1.52195
1.57287
1.62418
1.67583
1.72775
1.77986
1.8321
1.88439
1.93668
1.9889
2.041
2.09295
2.1447
2.19619
2.2474
2.29827
2.34879
2.39891
2.44861
2.49787
2.54664
2.5949
2.6426
2.6897
2.73617
2.78197
2.82705
2.87137
2.91488
2.95753
2.99927
3.04006
3.07985
3.11861
3.15629
3.19284
3.22823
3.26241
3.29534
3.32699
3.35733
3.38633
3.41397
3.44023
3.46507
3.48849
3.51047
3.531
3.55005
3.56763
3.58374
3.59836
3.61151
3.62318
3.63337
3.6421
3.64938
3.6552
3.65957
3.66252
3.66401
3.66423
3.66307
3.66049
3.65652
3.65117
3.64446
3.63642
3.62707
3.61642
3.6045
3.59134
3.57697
3.56142
3.54471
3.52689
3.50799
3.48806
3.46714
3.44528
3.42254
3.39896
3.37462
3.34959
3.32394
3.29774
3.27105
3.24394
3.21648
3.18872
3.16072
3.13255
3.10426
3.0759
3.04755
3.01926
2.99111
2.96316
2.93548
2.90814
2.88121
2.85476
2.82886
2.80351
2.77871
2.75362
2.72618
0.000781023
0.0151482
0.036208
0.0465713
0.0512572
0.0530045
0.0529814
0.051765
0.049753
0.0472562
0.0445385
0.0418228
0.0392947
0.0370919
0.0353122
0.0340004
0.0332335
0.032985
0.0332292
0.0341482
0.0359798
0.039024
0.0436063
0.0499635
0.0582312
0.0683261
0.0799939
0.0926935
0.105696
0.118306
0.129977
0.140465
0.149902
0.158911
0.168501
0.179719
0.193329
0.209666
0.228665
0.250031
0.273375
0.298306
0.324462
0.351542
0.379324
0.407689
0.436612
0.466133
0.496326
0.527281
0.559088
0.591823
0.625556
0.660347
0.696243
0.733279
0.771477
0.810842
0.85137
0.893046
0.935846
0.979742
1.0247
1.07069
1.11767
1.16561
1.21447
1.26423
1.31486
1.36631
1.41855
1.47155
1.52526
1.57962
1.63457
1.69003
1.74593
1.8022
1.85873
1.91544
1.97224
2.02905
2.08581
2.14245
2.19893
2.25521
2.31122
2.36692
2.42226
2.4772
2.53171
2.58577
2.63934
2.69237
2.74483
2.79668
2.84785
2.89832
2.94804
2.99695
3.04501
3.09216
3.13835
3.18351
3.22761
3.27059
3.31241
3.35301
3.39236
3.4304
3.46709
3.50238
3.53625
3.56866
3.59958
3.62899
3.65688
3.68322
3.70799
3.73119
3.75279
3.7728
3.79122
3.80803
3.82326
3.8369
3.84897
3.85947
3.86841
3.87581
3.88166
3.886
3.88882
3.89015
3.89007
3.88854
3.88551
3.88103
3.87511
3.86776
3.859
3.84885
3.83734
3.82448
3.8103
3.79483
3.77809
3.76012
3.74094
3.7206
3.69914
3.67659
3.65302
3.62847
3.60301
3.57673
3.54969
3.52198
3.49366
3.4648
3.43546
3.40572
3.37562
3.34524
3.31463
3.28386
3.25299
3.22209
3.19125
3.16052
3.12997
3.09969
3.06973
3.04018
3.01111
2.98259
2.95466
2.92732
2.8998
2.87023
0.00127218
0.0221622
0.0438472
0.0536787
0.0578645
0.0591333
0.0586784
0.0570234
0.0546091
0.0517963
0.0488914
0.0461462
0.0437644
0.0419045
0.0407295
0.0402827
0.0404553
0.0413957
0.0431999
0.0460061
0.0499687
0.0552166
0.0618121
0.0696954
0.0787208
0.088672
0.0992161
0.109954
0.120517
0.130682
0.140404
0.149877
0.159594
0.170244
0.182477
0.196758
0.213269
0.23194
0.252534
0.274753
0.298297
0.3229
0.348343
0.374462
0.401163
0.428418
0.456263
0.484772
0.514042
0.544175
0.575265
0.607403
0.640671
0.67514
0.710869
0.747908
0.786289
0.826036
0.86716
0.90966
0.953528
0.998745
1.04528
1.09311
1.1422
1.19251
1.244
1.29662
1.35035
1.40512
1.46089
1.51761
1.5752
1.6336
1.69271
1.75244
1.8127
1.87338
1.9344
1.99564
2.05699
2.11835
2.17966
2.24086
2.30188
2.36267
2.42318
2.48334
2.54311
2.60244
2.66131
2.71968
2.77752
2.83477
2.89139
2.94732
3.0025
3.0569
3.11046
3.16312
3.21483
3.26552
3.31513
3.3636
3.41087
3.45689
3.5016
3.54496
3.58692
3.62741
3.6664
3.70385
3.7397
3.77393
3.80652
3.83745
3.86669
3.89424
3.92008
3.9442
3.96659
3.98725
4.0062
4.02343
4.03896
4.05281
4.06498
4.0755
4.08439
4.09165
4.0973
4.10135
4.10384
4.10478
4.10423
4.10217
4.09855
4.09343
4.08681
4.07872
4.06916
4.05816
4.04573
4.03189
4.01667
4.00008
3.98216
3.96293
3.94242
3.92067
3.8977
3.87356
3.84828
3.82196
3.79466
3.76647
3.73747
3.70772
3.67732
3.64631
3.61478
3.58278
3.55038
3.51763
3.4846
3.45137
3.418
3.38458
3.35119
3.3179
3.28477
3.25188
3.2193
3.18711
3.15539
3.12423
3.09367
3.06375
3.03374
3.00194
0.00189791
0.0286435
0.0509568
0.0607194
0.0646992
0.0657155
0.0649492
0.0629661
0.060294
0.0573799
0.054583
0.0521722
0.0503326
0.0493193
0.0490492
0.0495821
0.0509611
0.0532356
0.0564387
0.0606047
0.0657686
0.0719137
0.078957
0.0867621
0.0951706
0.104005
0.11309
0.122299
0.13157
0.140959
0.15067
0.161052
0.172522
0.185449
0.200068
0.216456
0.234539
0.254142
0.275051
0.297056
0.319971
0.343649
0.367981
0.392907
0.418408
0.444516
0.471299
0.49885
0.527272
0.556674
0.58716
0.618829
0.651772
0.686073
0.721805
0.759026
0.797779
0.838103
0.880023
0.923556
0.968704
1.01546
1.0638
1.11371
1.16515
1.21809
1.27248
1.32826
1.38537
1.44376
1.50334
1.56405
1.62578
1.68843
1.75187
1.81599
1.88067
1.9458
2.01129
2.07701
2.14284
2.20868
2.27445
2.3401
2.40555
2.47075
2.53561
2.60008
2.66411
2.72767
2.79072
2.85324
2.91517
2.97645
3.03704
3.09685
3.15585
3.21395
3.27113
3.3273
3.38242
3.43639
3.48917
3.54066
3.59082
3.63958
3.68688
3.73268
3.77691
3.81952
3.86047
3.89969
3.93716
3.97285
4.00672
4.03877
4.06898
4.09734
4.12384
4.14847
4.17125
4.19217
4.21124
4.2285
4.24394
4.25761
4.26953
4.27972
4.2882
4.295
4.30013
4.30362
4.3055
4.30578
4.30458
4.30177
4.29738
4.29145
4.284
4.27504
4.26458
4.25265
4.23925
4.22439
4.2081
4.1904
4.1713
4.15084
4.12903
4.10591
4.0815
4.05582
4.02891
4.00087
3.9718
3.94177
3.91087
3.87917
3.84675
3.81367
3.78002
3.74584
3.7112
3.67614
3.64075
3.60511
3.56931
3.53343
3.49756
3.46175
3.42609
3.39064
3.35547
3.32067
3.28633
3.25253
3.21935
3.18685
3.15434
3.12035
0.00266919
0.0342743
0.0580506
0.0680045
0.0718641
0.072691
0.0716613
0.0694281
0.0666046
0.0637635
0.0613543
0.0596081
0.0587267
0.0585285
0.0591783
0.0606798
0.0630223
0.0661773
0.0701329
0.074869
0.0803419
0.086485
0.0932177
0.100462
0.108148
0.116228
0.124683
0.133538
0.142892
0.152912
0.163806
0.175794
0.189052
0.203677
0.219674
0.23697
0.255444
0.274953
0.295361
0.31655
0.338432
0.360947
0.384071
0.40781
0.4322
0.457305
0.483214
0.510031
0.537864
0.566817
0.596998
0.628514
0.661464
0.695942
0.732029
0.769798
0.80931
0.850618
0.893762
0.93877
0.985658
1.03442
1.08506
1.13754
1.19183
1.2479
1.30568
1.36511
1.4261
1.48855
1.55236
1.61741
1.68356
1.75068
1.81859
1.88714
1.9562
2.02566
2.09542
2.16539
2.23545
2.30551
2.37549
2.44533
2.51496
2.58428
2.65319
2.72162
2.78958
2.85702
2.92391
2.99021
3.05586
3.12079
3.18495
3.24825
3.31063
3.37202
3.43237
3.49161
3.54967
3.60647
3.66192
3.71596
3.76851
3.8195
3.86888
3.91659
3.96257
4.00676
4.04911
4.08958
4.12812
4.1647
4.19931
4.23193
4.26255
4.29117
4.31778
4.34239
4.36502
4.38567
4.40436
4.42113
4.43601
4.44904
4.46024
4.46967
4.47734
4.48328
4.48753
4.49011
4.49105
4.49045
4.48829
4.48448
4.4791
4.47219
4.46375
4.45379
4.44233
4.42938
4.41495
4.39904
4.38167
4.36285
4.3426
4.32094
4.29789
4.27347
4.24771
4.22059
4.19215
4.16252
4.1318
4.10006
4.06738
4.03384
3.99952
3.96449
3.92882
3.89258
3.85581
3.81855
3.78091
3.74299
3.70487
3.66665
3.6284
3.59019
3.5521
3.51418
3.47651
3.43918
3.40228
3.36592
3.33018
3.29515
3.26019
3.22409
0.00352432
0.0403192
0.065144
0.0753217
0.0791241
0.0798037
0.0784299
0.0758516
0.0730022
0.0705326
0.0687986
0.0679817
0.0678256
0.0683962
0.0697705
0.0719338
0.0748332
0.0784191
0.0826567
0.0875102
0.0929458
0.0989307
0.105448
0.112488
0.120056
0.128184
0.13693
0.146383
0.15665
0.167843
0.180047
0.193323
0.207689
0.223114
0.239533
0.25686
0.275008
0.293899
0.313472
0.333692
0.354544
0.376037
0.398198
0.421076
0.444743
0.469292
0.494797
0.521365
0.54911
0.578149
0.608601
0.640579
0.674193
0.709547
0.746736
0.785842
0.826936
0.870075
0.91531
0.962672
1.01218
1.06383
1.11761
1.17348
1.2314
1.29132
1.35317
1.41688
1.48231
1.54933
1.61776
1.68743
1.75816
1.82977
1.90207
1.97489
2.04805
2.12138
2.19488
2.26854
2.34232
2.41608
2.48973
2.56324
2.63652
2.70943
2.78187
2.85379
2.9252
2.99603
3.06623
3.13575
3.20453
3.27251
3.33961
3.40575
3.47084
3.53484
3.59767
3.65926
3.71954
3.77842
3.83581
3.89164
3.94581
3.99827
4.04895
4.09778
4.14472
4.1897
4.23267
4.27359
4.31241
4.34911
4.38367
4.41609
4.44636
4.47449
4.50049
4.52437
4.54615
4.56586
4.58352
4.59918
4.61289
4.62469
4.63464
4.64277
4.64914
4.65377
4.65671
4.65799
4.65767
4.65587
4.65238
4.64732
4.64073
4.63262
4.62301
4.61191
4.59932
4.58525
4.5697
4.55269
4.53421
4.51427
4.49287
4.47003
4.44577
4.42011
4.39306
4.36462
4.33482
4.30379
4.27159
4.23832
4.20404
4.16883
4.13278
4.09596
4.05845
4.02032
3.9816
3.94231
3.9026
3.86258
3.82233
3.78193
3.74147
3.70103
3.66066
3.62042
3.58038
3.54065
3.50134
3.46256
3.42437
3.38692
3.34959
3.31156
0.00442125
0.0462716
0.0722355
0.0826482
0.0863781
0.0868632
0.0850803
0.0823357
0.0797457
0.077868
0.0769615
0.0767373
0.0771976
0.0783197
0.0801937
0.0827624
0.0859754
0.0897902
0.0941875
0.0991572
0.104702
0.11083
0.117565
0.124942
0.133009
0.141822
0.151437
0.161908
0.173275
0.185542
0.198711
0.212765
0.227653
0.243317
0.259694
0.276736
0.294409
0.3127
0.331614
0.351174
0.371417
0.392394
0.41418
0.43688
0.460634
0.485473
0.511422
0.538672
0.567339
0.597558
0.62946
0.66316
0.698774
0.736412
0.77617
0.818127
0.862343
0.908855
0.957684
1.00885
1.06235
1.11817
1.17624
1.23648
1.29885
1.3633
1.42975
1.49813
1.56831
1.6401
1.71329
1.7875
1.86258
1.93832
2.01461
2.09127
2.16804
2.24475
2.32153
2.3984
2.47523
2.5519
2.62841
2.70483
2.78099
2.85675
2.93207
3.00687
3.08103
3.15446
3.22712
3.29897
3.36995
3.43999
3.509
3.57691
3.64363
3.70911
3.77328
3.83607
3.89741
3.9572
4.01535
4.07176
4.12636
4.17908
4.22984
4.27861
4.3253
4.36988
4.41229
4.45249
4.49044
4.52611
4.55951
4.59063
4.6195
4.64612
4.67051
4.69269
4.7127
4.73058
4.74636
4.76011
4.77189
4.78175
4.78977
4.79601
4.8005
4.8033
4.80445
4.80403
4.80216
4.79861
4.79355
4.78699
4.77896
4.76948
4.75855
4.74619
4.73239
4.71715
4.70048
4.68237
4.66281
4.6418
4.61933
4.59541
4.57006
4.54327
4.51504
4.48545
4.45453
4.4223
4.38885
4.35423