/*--------------------------------*- C++ -*----------------------------------*\
  =========                 |
  \\      /  F ield         | OpenFOAM: The Open Source CFD Toolbox
   \\    /   O peration     | Website:  https://openfoam.org
    \\  /    A nd           | Version:  13
     \\/     M anipulation  |
\*---------------------------------------------------------------------------*/
FoamFile
{
    format      ascii;
    class       volScalarField;
    location    "2000";
    object      omega;
}
// * * * * * * * * * * * * * * * * * * * * * * * * * * * * * * * * * * * * * //

dimensions      [0 0 -1 0 0 0 0];

internalField   nonuniform List<scalar> 
12225
(
31477.7
41113.8
39460.8
39535.6
37007.8
31477.7
31477.7
45407.7
40066.8
31477.7
46322.1
40369
31477.7
31477.7
31477.7
31477.7
39883.3
44569.7
77733
44230.8
72630.4
0.19752
545007
0.199405
2.80609e+06
0.181317
1.68891e+07
0.217992
1.15229e+08
6.00623e+07
2.25541e+07
7.51173e+06
5.07391e+06
3.05009e+06
1.2868e+06
820214
19140.8
17264.4
15876.3
29640.9
10217.3
0.046086
49499.8
0.0312688
232321
0.0322601
1.64703e+07
1.46335e+07
7.91882e+06
2.67969e+06
2.05282e+06
1.11051e+06
477814
212271
2445.76
6662.14
16226.5
14669.5
32216
0.0426671
108102
46236.8
39975.9
0.0573038
215976
321758
226254
129948
83844.8
55293.4
36280.8
22262.1
0.433756
6846.29
6022.9
20728.9
0.0760249
102055
120449
94160.3
40181
28750.2
19914.2
28153.3
22029.9
15890.4
12747.1
9989.2
8045.45
6599.65
0.381797
1335.19
4019.79
4123.36
3206.83
0.247946
97265.7
69685.9
41311.3
21361.1
13149.7
9821.45
8632.61
6932.22
5815.48
5014.07
4260.16
3749.99
629.608
1024.48
1413.65
1633.04
1727.57
1477.09
4922.79
6537.18
6684.05
6254.87
4703.42
3700.49
3574.28
3391.97
2972.74
2557.62
2227.32
2038.94
517.158
1225.01
975.899
882.275
957.924
945.762
1131.82
1347.88
1515.55
1613.53
1372.63
1442.41
1435.95
1304.25
1182.6
1218.7
1211.34
1172.21
266.05
850.816
689.232
605.724
601.375
621.632
644.942
680.971
716.875
717.428
698.753
700.483
717.383
727.641
740.624
754.788
760.556
770.54
381.02
498.661
471.18
474.886
478.788
492.158
499.41
509.115
518.032
518.136
516.157
521.854
532.722
544.645
556.616
567.695
576.573
582.262
427.655
439.75
435.68
434.564
435.239
441.398
444.413
447.839
450.648
450.653
451.236
454.815
460.182
466.188
472.151
477.813
482.803
486.382
437.13
435.861
433.986
432.411
431.327
430.822
430.58
430.788
430.415
430.754
430.62
431.653
433.376
435.641
437.884
440.22
442.274
443.767
438.795
436.539
434.509
432.508
430.852
429.205
427.694
426.307
425.069
424.092
422.974
422.553
421.829
421.719
421.872
422.007
422.198
422.588
438.992
436.754
434.651
432.637
430.761
428.979
427.277
425.66
424.123
422.723
421.422
420.301
419.231
418.354
417.459
416.765
415.935
415.367
439.001
436.776
434.66
432.655
430.747
428.941
427.217
425.584
424.018
422.543
421.135
419.822
418.565
417.399
416.272
415.229
414.201
413.259
439
436.774
434.657
432.65
430.74
428.928
427.202
425.563
423.998
422.512
421.093
419.745
418.458
417.236
416.066
414.955
413.889
412.878
439
436.772
434.655
432.645
430.735
428.92
427.193
425.55
423.985
422.494
421.074
419.721
418.43
417.199
416.023
414.903
413.831
412.81
438.999
436.769
434.65
432.638
430.726
428.908
427.18
425.534
423.968
422.475
421.053
419.697
418.405
417.171
415.994
414.871
413.799
412.774
439
436.771
434.653
432.642
430.73
428.913
427.184
425.539
423.973
422.48
421.058
419.701
418.408
417.174
415.997
414.872
413.8
412.774
439.003
436.77
434.657
432.645
430.738
428.92
427.194
425.55
423.988
422.498
421.079
419.724
418.434
417.2
416.025
414.9
413.83
412.804
439.014
436.76
434.663
432.66
430.766
428.944
427.246
425.634
424.114
422.669
421.29
419.968
418.706
417.487
416.334
415.215
414.17
413.144
439.051
436.659
434.701
432.788
430.893
429.146
427.814
426.619
425.581
424.645
423.666
422.77
421.8
420.86
419.939
418.96
418.104
417.048
438.368
436.178
433.939
430.819
429.748
430.579
432.955
435.459
437.794
440.104
441.752
443.4
445.342
446.701
447.101
449.207
448.338
450.13
438.836
436.812
432.504
431.77
440.053
455.879
476.867
495.195
511.35
524.34
533.414
545.741
552.887
559.035
560.264
568.455
571.569
573.988
437.94
434.231
430.933
450.048
577.739
635.459
718.41
803.91
877.553
935.763
976.133
1006.72
1008.54
1002.03
998.085
973.399
979.65
979.788
433.102
444.57
439.811
739.835
799.713
1578.1
1604.26
1676.51
1783.37
2094.89
2516.33
2645.44
2575.32
2467.2
2335
2188.49
2127.06
2079.66
440.537
582.526
750.368
1625.68
1993.81
2323.35
2510.62
3104.28
3328.65
6403.99
5807.42
7378.71
7980.81
7660.43
7105.38
6348.39
5886.97
5169.25
455.126
757.56
1949.86
2409.51
6019.11
5612.52
6193
5933.41
6265.58
5834.69
5744.41
5834.58
5784.74
5964.06
7248.31
6811.04
8315.14
7703.64
1608.8
3713.71
5161.7
6744.91
10749.8
12810.3
13361.7
13105.7
12552
13261.7
12495.7
12305.8
12198.1
12056.3
11986.8
12565.8
12152.4
12426.6
18117.5
23573.4
25568.8
26506.1
26815.2
26752.4
26521
26152.9
25708.1
25274.3
24863.4
24475.3
24134.5
23855.7
23621.4
23438.3
23287.5
23185.8
11463.2
2514.24
2516.41
2518.61
2520.83
2523.07
2525.32
2527.6
2529.9
2532.22
2534.57
2536.93
2539.31
2541.72
2544.15
2546.6
2549.08
2551.57
2554.09
2556.64
2559.2
2561.79
2564.41
2567.05
2569.71
2572.4
2575.12
2577.86
2580.62
2583.41
2586.23
2589.08
2591.95
2594.85
2597.77
2600.73
2603.71
2606.72
2609.76
2612.82
2615.92
2619.05
2622.2
2625.39
2628.61
2631.86
2635.14
2638.45
2641.79
2645.17
2648.58
2652.02
2655.5
2659.01
2662.55
2666.13
2669.74
2673.39
2677.08
3170.65
3149.34
3283.59
2692.19
3188.54
3337.69
3429.35
3507.22
3595.54
3669.4
3745.85
3817.67
3888.17
3956.36
4023.11
4088.11
4151.9
4214.25
4275.55
4335.64
4394.79
4452.87
4510.08
4566.33
4621.77
4676.31
4730.07
4782.95
4835.07
4886.34
4936.82
4986.44
5035.19
5083.01
5129.86
5175.71
5220.47
5264.11
5306.53
5347.7
5387.54
5426.1
5463.41
5499.73
5535.49
5570.06
5603.58
5635.96
5667.27
5697.42
5726.44
5754.27
5780.94
5806.37
5830.62
5853.61
5875.4
5895.9
5915.19
5933.21
5950.01
5965.56
5979.9
5993.03
6005.02
6015.94
6025.93
6035.3
6044.16
6050.57
6053.18
6060.21
6059.34
6064.92
6061.45
6064.78
6059.5
6058.44
6054.56
6050.13
6044.42
6037.82
6030.25
6021.8
6012.53
6002.48
5991.71
5980.24
5968.11
5955.34
5941.98
5928.03
5913.54
5898.52
5883
5867.05
5850.73
5834
5816.99
5799.78
5782.55
5765.39
5748.39
5731.6
5715.08
5698.91
5683.13
5667.79
5652.97
5638.73
5625.13
5612.23
5600
5588.42
5577.18
5566.02
5554.13
5540.39
5522.55
5496.72
5387.83
11463.2
1992.57
992.931
807.759
690.837
610.445
614.349
613.52
605.39
585.143
562.497
539.585
518.481
500.958
488.744
480.135
478.76
480.022
501.206
540.247
617.013
712.395
819.433
928.166
1030.93
1113.11
1173.57
1182.01
1160.88
1100.88
990.607
860.289
705.304
599.498
531.88
476.829
447.909
445.462
454.021
474.88
507.049
536.759
577.485
662.958
774.297
953.236
1259.99
1580.03
1807.23
1955.78
2035.02
2060.17
2057.32
2020.3
1992.6
1946.71
1878.64
1829.52
1784.71
1757.86
1702.63
1677.15
1643.11
1657.84
1651.05
1647.57
1645.84
1646.35
1648.87
1652.32
1657.36
1663.14
1669.81
1677.07
1684.82
1692.97
1701.38
1710.05
1718.84
1727.76
1736.73
1745.74
1754.73
1763.69
1772.57
1781.36
1790.02
1798.54
1806.87
1815
1822.89
1830.53
1837.89
1844.96
1851.73
1858.21
1864.38
1870.3
1876
1881.61
1887.3
1893.34
1900.14
1908.23
1916.04
1923.67
1930.98
1938.06
1944.86
1951.4
1957.68
1963.7
1969.46
1974.96
1980.21
1985.2
1989.96
1994.47
1998.74
2002.78
2006.6
2010.2
2013.58
2016.76
2019.74
2022.52
2025.12
2027.49
2029.52
2031.32
2033.16
2034.4
2035.88
2036.8
2037.88
2038.38
2038.96
2038.05
2036.79
2035.3
2033.6
2031.7
2029.63
2027.41
2024.86
2022.27
2019.33
2016.39
2013.02
2009.99
2006.11
2002.96
1998.92
1995.21
1991.38
1987.24
1983.14
1979.03
1974.77
1970.54
1966.32
1962.13
1957.96
1953.85
1949.83
1945.87
1942.03
1938.3
1934.71
1931.26
1928
1924.91
1921.99
1919.38
1917.07
1915.12
1913.65
1913.03
1912.31
1921.69
11463.2
2001.92
802.327
613.988
644.073
658.862
638.023
588.43
531.695
477.151
428.267
387.098
354.471
328.709
308.709
293.339
282.194
274.263
270.375
271.727
280.018
294.989
323.3
362.381
413.643
470.993
533.655
586.475
627.036
640.664
631.04
602.446
546.08
481.727
415.964
370.446
365.493
375.247
398.041
431.378
498.697
605.891
750.007
943.11
1124.06
1276.01
1410.07
1499.63
1546.77
1549.36
1510.12
1456.36
1397.5
1340.14
1291.42
1245.51
1203.89
1173.19
1148.79
1129.93
1114.34
1106.17
1097.19
1094.76
1091.46
1091.02
1091.49
1093.02
1095.28
1098.12
1101.51
1105.26
1109.35
1113.68
1118.19
1122.86
1127.64
1132.5
1137.41
1142.35
1147.3
1152.24
1157.16
1162.04
1166.87
1171.63
1176.32
1180.91
1185.41
1189.8
1194.08
1198.25
1202.3
1206.25
1210.08
1213.83
1217.49
1221.12
1224.72
1228.36
1232.07
1235.9
1239.86
1243.86
1247.66
1251.35
1254.88
1258.27
1261.52
1264.63
1267.6
1270.43
1273.13
1275.69
1278.12
1280.41
1282.57
1284.61
1286.52
1288.3
1289.97
1291.5
1292.92
1294.21
1295.38
1296.42
1297.33
1298.11
1298.75
1299.29
1299.71
1299.97
1300.16
1300.24
1300.36
1299.76
1299.34
1298.43
1297.47
1296.38
1295.17
1293.85
1292.43
1290.9
1289.23
1287.48
1285.6
1283.65
1281.57
1279.48
1277.17
1274.96
1272.5
1270.09
1267.6
1265.01
1262.42
1259.8
1257.12
1254.45
1251.77
1249.1
1246.44
1243.8
1241.2
1238.63
1236.11
1233.65
1231.25
1228.93
1226.7
1224.59
1222.61
1220.83
1219.31
1218.14
1217.55
1217.9
1219.67
1229.99
11463.2
2031
976.134
928.44
876.265
758.258
647.637
545.297
462.343
399.948
353.078
315.782
286.723
264.398
247.302
234.277
224.487
217.31
212.408
209.808
210.378
212.479
219.228
230.778
249.289
274.386
306.75
341.342
375.705
401.797
419.981
419.213
406.923
381.54
380.72
417.542
497.195
558.794
612.802
681.008
778.28
911.539
1039.85
1122.92
1192.41
1249.84
1278.6
1258.61
1205.72
1167.44
1111.05
1065.36
1022.23
987.171
957.981
933.712
914.226
899.91
889.194
881.739
876.251
873.567
870.756
870.342
870.549
871.735
873.487
875.75
878.384
881.331
884.535
887.934
891.498
895.187
898.976
902.843
906.767
910.733
914.724
918.728
922.733
926.728
930.702
934.646
938.551
942.411
946.217
949.965
953.649
957.269
960.821
964.306
967.723
971.076
974.371
977.614
980.814
983.982
987.127
990.257
993.374
996.474
999.536
1002.51
1005.37
1008.13
1010.78
1013.32
1015.75
1018.08
1020.29
1022.4
1024.4
1026.3
1028.08
1029.76
1031.34
1032.8
1034.17
1035.42
1036.57
1037.61
1038.54
1039.36
1040.07
1040.67
1041.15
1041.52
1041.78
1041.94
1042.02
1041.95
1041.78
1041.51
1041.14
1040.51
1039.82
1038.92
1037.92
1036.82
1035.62
1034.33
1032.94
1031.46
1029.89
1028.23
1026.48
1024.66
1022.76
1020.79
1018.74
1016.66
1014.48
1012.28
1010.02
1007.71
1005.38
1003.02
1000.62
998.219
995.806
993.392
990.981
988.584
986.205
983.851
981.527
979.24
976.998
974.811
972.694
970.658
968.73
966.956
965.388
964.123
963.345
963.425
964.768
971.188
11463.2
2269.85
1403.69
1153.64
925.001
723.47
561.201
449.535
373.033
319.415
280.815
253.696
233.873
218.818
207.051
197.83
190.746
185.55
182.003
179.946
179.894
180.749
183.725
188.987
197.83
210.864
229.176
251.335
275.21
297.679
314.244
325.553
351.055
400.279
497.634
582.038
647.842
715.374
791.821
868.657
937.343
995.757
1045.69
1081.86
1095.8
1076.61
1025.43
992.429
947.047
911.62
874.61
846.718
821.944
802.624
786.951
774.697
765.478
758.978
754.523
752.365
750.606
750.398
750.811
752.148
754.012
756.343
759.018
761.974
765.151
768.51
772.016
775.64
779.36
783.158
787.018
790.926
794.87
798.84
802.825
806.816
810.804
814.781
818.738
822.67
826.568
830.429
834.245
838.012
841.728
845.39
848.999
852.551
856.047
859.488
862.876
866.213
869.503
872.746
875.942
879.089
882.179
885.2
888.144
890.995
893.747
896.403
898.959
901.417
903.774
906.031
908.184
910.234
912.177
914.015
915.741
917.36
918.87
920.272
921.564
922.744
923.811
924.762
925.596
926.312
926.908
927.384
927.738
927.971
928.086
928.118
928.089
927.874
927.542
927.097
926.532
925.814
924.981
924.011
922.937
921.758
920.48
919.105
917.635
916.072
914.417
912.678
910.856
908.958
906.982
904.939
902.823
900.657
898.422
896.144
893.817
891.445
889.038
886.601
884.137
881.656
879.163
876.663
874.163
871.67
869.19
866.727
864.287
861.876
859.501
857.17
854.896
852.698
850.595
848.62
846.817
845.266
844.101
843.64
844.21
847.576
11463.2
2832.36
1687.48
1189.25
832.596
589.973
446.135
356.018
299.461
262.788
237.437
218.791
204.483
193.329
184.473
177.415
171.903
167.822
165.036
163.567
163.608
164.513
166.914
171.124
177.44
186.357
199.287
216.41
237.518
264.058
303.172
356.538
442.32
544.631
629.593
696.849
760.118
815.699
859.716
896.513
930.855
955.206
962.507
940.596
907.329
877.242
840.917
811.788
781.549
757.748
736.168
719.494
705.521
694.766
686.478
680.439
676.333
674.115
673.157
673.055
673.803
675.395
677.539
680.178
683.176
686.463
689.974
693.665
697.501
701.454
705.504
709.632
713.826
718.074
722.365
726.69
731.041
735.408
739.783
744.16
748.529
752.884
757.218
761.525
765.799
770.034
774.225
778.368
782.459
786.499
790.483
794.411
798.281
802.093
805.846
809.54
813.175
816.749
820.259
823.7
827.066
830.344
833.534
836.63
839.628
842.528
845.326
848.021
850.612
853.096
855.472
857.735
859.884
861.917
863.83
865.623
867.295
868.843
870.265
871.56
872.724
873.755
874.652
875.414
876.039
876.526
876.874
877.082
877.17
877.209
877.071
876.778
876.352
875.798
875.113
874.291
873.34
872.262
871.068
869.76
868.344
866.822
865.197
863.471
861.647
859.73
857.726
855.641
853.474
851.232
848.917
846.54
844.099
841.605
839.059
836.465
833.831
831.164
828.468
825.75
823.016
820.272
817.525
814.782
812.048
809.327
806.626
803.949
801.303
798.697
796.141
793.651
791.245
788.95
786.804
784.868
783.236
782.138
781.856
783.112
11463.2
3351.63
1747.64
1038.83
656.063
459.574
356.268
298.816
262.846
237.822
219.043
204.342
192.513
182.801
174.759
168.188
163.003
159.149
156.683
155.641
155.993
157.609
161.038
166.432
174.494
186.297
201.703
223.764
257.347
308.644
387.404
486.731
575.591
644.24
703.925
752.823
789.668
818.613
844.807
857.749
860.237
841.383
817.4
792.682
766.141
741.257
716.518
695.712
676.827
661.635
648.801
638.778
630.868
625.051
621
618.712
617.779
617.688
618.638
620.372
622.76
625.701
629.064
632.77
636.744
640.928
645.279
649.764
654.356
659.036
663.79
668.604
673.468
678.374
683.314
688.281
693.266
698.262
703.261
708.255
713.238
718.201
723.138
728.043
732.911
737.735
742.511
747.235
751.902
756.511
761.06
765.545
769.965
774.319
778.605
782.822
786.967
791.039
795.034
798.949
802.78
806.527
810.179
813.729
817.176
820.514
823.743
826.857
829.852
832.722
835.461
838.07
840.546
842.887
845.089
847.151
849.07
850.843
852.468
853.943
855.265
856.432
857.442
858.295
858.989
859.523
859.897
860.11
860.209
860.212
860.016
859.657
859.147
858.492
857.694
856.752
855.671
854.455
853.11
851.64
850.05
848.342
846.521
844.589
842.55
840.406
838.149
835.796
833.354
830.829
828.224
825.548
822.805
820
817.138
814.224
811.265
808.268
805.239
802.185
799.112
796.027
792.935
789.846
786.763
783.692
780.638
777.606
774.605
771.641
768.725
765.87
763.094
760.418
757.874
755.508
753.387
751.676
750.507
750.229
11463.2
3521.79
1569.12
824.313
517.535
379.772
309.642
268.396
241.593
222.856
208.721
197.23
187.323
178.679
171.295
165.208
160.525
157.452
156.006
156.117
157.592
160.825
166.388
174.729
187.9
208.19
237.793
282.819
352.984
436.815
514.927
578.977
634.656
682.383
720.093
749.744
771.907
781.135
780.195
764.779
746.925
726.892
706.732
687.026
667.573
649.458
632.887
618.868
606.892
597.242
589.504
583.65
579.424
576.82
575.651
575.427
576.227
577.918
580.386
583.488
587.119
591.187
595.606
600.308
605.235
610.342
615.592
620.959
626.419
631.956
637.556
643.207
648.902
654.632
660.388
666.165
671.956
677.751
683.543
689.323
695.083
700.817
706.517
712.177
717.792
723.355
728.861
734.307
739.688
745.002
750.245
755.414
760.509
765.526
770.464
775.32
780.092
784.776
789.371
793.873
798.281
802.59
806.788
810.869
814.831
818.668
822.377
825.954
829.392
832.689
835.839
838.838
841.682
844.368
846.891
849.25
851.44
853.458
855.302
856.968
858.455
859.759
860.88
861.817
862.569
863.135
863.515
863.713
863.787
863.716
863.431
862.964
862.328
861.527
860.565
859.446
858.173
856.752
855.188
853.484
851.647
849.679
847.586
845.371
843.038
840.59
838.029
835.374
832.621
829.777
826.847
823.838
820.756
817.605
814.391
811.121
807.802
804.441
801.045
797.621
794.175
790.715
787.247
783.778
780.314
776.861
773.423
770.008
766.623
763.276
759.976
756.736
753.572
750.502
747.552
744.757
742.166
739.891
737.952
736.412
11463.2
3402.7
1297.6
665.561
441.759
344.135
292.041
258.98
237.07
220.64
207.699
197.048
188.075
180.445
174.094
169.15
165.827
164.255
164.548
167.075
171.747
179.693
192.152
210.253
238.702
281.775
339.144
404.38
465.133
520.749
569.92
612.921
649.166
679.954
703.873
713.936
714.051
702.506
689.34
673.184
657.431
641.892
626.89
612.347
598.427
585.725
574.573
565.236
557.569
551.558
547.054
543.965
542.382
541.883
542.311
543.748
546.051
549.112
552.83
557.105
561.851
566.99
572.454
578.182
584.125
590.24
596.496
602.865
609.329
615.866
622.461
629.103
635.781
642.485
649.205
655.935
662.675
669.408
676.126
682.823
689.488
696.115
702.696
709.227
715.701
722.112
728.451
734.705
740.877
746.972
752.988
758.922
764.773
770.538
776.213
781.796
787.284
792.673
797.96
803.139
808.201
813.141
817.954
822.635
827.178
831.579
835.833
839.933
843.874
847.65
851.255
854.683
857.93
860.99
863.859
866.535
869.011
871.286
873.356
875.216
876.865
878.301
879.522
880.529
881.32
881.895
882.25
882.414
882.435
882.233
881.816
881.198
880.388
879.391
878.214
876.86
875.337
873.648
871.8
869.799
867.648
865.353
862.919
860.353
857.657
854.838
851.9
848.853
845.699
842.445
839.096
835.662
832.147
828.558
824.901
821.184
817.414
813.599
809.748
805.867
801.963
798.042
794.112
790.181
786.254
782.338
778.439
774.563
770.72
766.916
763.163
759.472
755.855
752.331
748.918
745.646
742.548
739.722
737.141
734.608
11463.2
3011.34
1047.31
561.567
395.79
320.41
279.574
254.48
236.726
223.749
213.421
204.744
197.376
191.34
186.794
184.346
184.024
186.507
191.794
200.554
213.13
231.779
258.083
293.53
336.527
382.743
429.497
474.086
514.766
551.825
584.068
612.393
637.888
651.387
654.265
648.533
639.563
627.223
614.959
602.68
591.091
579.859
568.946
558.404
548.535
539.731
532.216
526.077
521.275
517.774
515.629
514.74
514.694
515.716
517.674
520.499
524.102
528.396
533.299
538.73
544.617
550.894
557.499
564.372
571.465
578.736
586.151
593.684
601.324
609.035
616.798
624.597
632.419
640.251
648.075
655.872
663.608
671.316
679.003
686.662
694.283
701.857
709.377
716.839
724.237
731.565
738.817
745.992
753.083
760.079
766.974
773.769
780.461
787.047
793.523
799.889
806.139
812.27
818.279
824.16
829.905
835.51
840.97
846.277
851.428
856.415
861.232
865.872
870.328
874.592
878.657
882.517
886.164
889.594
892.802
895.782
898.53
901.042
903.314
905.342
907.124
908.657
909.942
910.978
911.766
912.302
912.587
912.676
912.55
912.177
911.569
910.736
909.687
908.428
906.966
905.307
903.46
901.429
899.223
896.847
894.307
891.609
888.76
885.766
882.632
879.366
875.972
872.459
868.831
865.094
861.257
857.326
853.309
849.212
845.044
840.812
836.526
832.194
827.824
823.423
818.999
814.557
810.107
805.655
801.208
796.773
792.356
787.967
783.615
779.307
775.053
770.864
766.753
762.733
758.822
755.042
751.416
748.013
744.8
741.355
11463.2
2548.42
898.033
518.045
380.587
315.501
279.942
258.898
244.962
234.741
226.713
220.312
215.464
212.806
212.363
214.977
221.127
230.237
241.883
257.629
278.854
305.325
336.067
369.582
404.015
437.892
470.399
500.833
528.14
553.084
576.388
592.286
598.05
597.982
593.478
585.644
576.754
567.442
558.603
550.085
541.875
533.799
525.894
518.339
511.426
505.424
500.49
496.684
494.002
492.612
492.209
492.753
494.283
496.764
500.127
504.309
509.234
514.827
521.015
527.731
534.91
542.508
550.459
558.69
567.153
575.802
584.592
593.47
602.352
611.277
620.254
629.269
638.305
647.342
656.36
665.347
674.311
683.229
692.094
700.905
709.642
718.299
726.874
735.365
743.768
752.077
760.284
768.379
776.354
784.21
791.948
799.567
807.064
814.439
821.686
828.804
835.788
842.637
849.344
855.906
862.316
868.566
874.65
880.562
886.293
891.837
897.188
902.335
907.271
911.987
916.474
920.723
924.729
928.483
931.98
935.215
938.182
940.876
943.294
945.431
947.284
948.851
950.133
951.131
951.845
952.268
952.43
952.344
951.991
951.372
950.493
949.363
947.991
946.384
944.552
942.502
940.243
937.783
935.13
932.292
929.275
926.089
922.739
919.233
915.578
911.782
907.851
903.793
899.614
895.32
890.919
886.419
881.828
877.153
872.405
867.593
862.726
857.814
852.864
847.884
842.881
837.862
832.834
827.805
822.783
817.776
812.792
807.84
802.931
798.073
793.275
788.547
783.9
779.348
774.904
770.585
766.411
762.433
758.617
754.347
11463.2
2115.81
782.232
478.291
366.566
313.909
285.97
269.377
258.591
251.093
245.814
242.648
241.624
242.94
247.36
255.033
265.551
278.384
294.404
313.628
335.598
359.55
384.627
409.988
434.973
458.961
481.125
502.068
522.158
538.478
546.616
549.069
549.076
545.793
540.641
534.551
528.335
522.21
516.293
510.456
504.647
498.868
493.248
487.999
483.367
479.553
476.677
474.919
474.234
474.422
475.653
477.847
480.981
485.024
489.943
495.717
502.222
509.387
517.147
525.429
534.147
543.173
552.47
562.075
571.957
582.069
592.368
602.814
613.399
624.064
634.752
645.431
656.076
666.673
677.172
687.556
697.82
707.954
717.948
727.803
737.537
747.157
756.668
766.074
775.376
784.565
793.629
802.558
811.344
819.988
828.492
836.857
845.082
853.163
861.098
868.883
876.515
883.991
891.308
898.461
905.443
912.245
918.861
925.28
931.497
937.502
943.288
948.845
954.163
959.231
964.04
968.58
972.842
976.821
980.507
983.896
986.981
989.757
992.219
994.363
996.185
997.684
998.861
999.717
1000.25
1000.47
1000.4
1000.02
999.348
998.381
997.128
995.598
993.799
991.742
989.436
986.892
984.119
981.128
977.928
974.528
970.937
967.165
963.219
959.109
954.842
950.427
945.872
941.184
936.372
931.441
926.399
921.254
916.014
910.69
905.295
899.837
894.326
888.772
883.183
877.565
871.927
866.274
860.615
854.956
849.307
843.678
838.079
832.52
827.01
821.56
816.177
810.871
805.651
800.53
795.521
790.637
785.894
781.334
776.935
771.908
11463.2
1946.04
758.217
473.837
368.948
321.811
297.591
283.901
275.631
270.689
268.433
268.078
270.124
274.723
281.955
291.608
303.409
317.324
333.07
350.264
368.584
387.475
406.305
424.569
442.065
459.095
475.901
490.128
499.697
504.523
506.375
506.724
505.415
502.699
499.308
495.626
491.867
488.063
484.213
480.295
476.348
472.475
468.847
465.664
463.121
461.481
460.815
461.013
462.355
464.709
468.019
472.256
477.388
483.36
490.069
497.346
505.358
514.092
523.491
533.486
544.014
555.038
566.504
578.321
590.433
602.788
615.324
627.985
640.734
653.509
666.206
678.761
691.117
703.225
715.084
726.684
738.028
749.122
759.986
770.65
781.15
791.503
801.726
811.834
821.833
831.707
841.434
850.997
860.394
869.625
878.695
887.605
896.356
904.943
913.364
921.614
929.691
937.594
945.318
952.861
960.215
967.37
974.318
981.05
987.555
993.828
999.857
1005.63
1011.14
1016.38
1021.33
1025.98
1030.32
1034.34
1038.05
1041.42
1044.46
1047.15
1049.5
1051.49
1053.13
1054.4
1055.33
1055.89
1056.11
1055.98
1055.52
1054.72
1053.6
1052.16
1050.4
1048.34
1045.99
1043.36
1040.46
1037.3
1033.9
1030.26
1026.4
1022.33
1018.06
1013.59
1008.95
1004.13
999.154
994.024
988.75
983.343
977.809
972.157
966.394
960.526
954.563
948.52
942.41
936.243
930.027
923.772
917.485
911.174
904.846
898.508
892.166
885.827
879.504
873.208
866.951
860.743
854.595
848.514
842.51
836.59
830.763
825.042
819.44
813.969
808.641
803.493
798.525
792.775
11463.2
1881.15
738.883
471.112
375.612
332.909
311.678
300.215
293.867
290.912
290.156
291.602
295.448
301.437
309.361
318.923
329.894
342.042
355.116
368.8
382.725
396.521
410.099
423.662
437.027
448.721
457.194
463.324
467.578
470.045
471.165
471.511
471.143
470.089
468.668
467.011
465.186
463.222
461.163
459.082
457.105
455.43
454.395
453.958
454.157
455.254
457.231
460.006
463.428
467.651
472.863
479.086
486.304
494.482
503.59
513.649
524.558
536.273
548.706
561.767
575.374
589.462
603.947
618.73
633.738
648.94
664.232
679.484
694.583
709.434
723.987
738.179
751.952
765.265
778.105
790.473
802.383
813.856
824.963
835.805
846.485
857.011
867.412
877.733
887.978
898.118
908.092
917.868
927.465
936.883
946.123
955.186
964.073
972.78
981.303
989.639
997.786
1005.74
1013.51
1021.08
1028.44
1035.6
1042.53
1049.23
1055.69
1061.9
1067.85
1073.53
1078.92
1084.01
1088.8
1093.26
1097.4
1101.2
1104.65
1107.75
1110.48
1112.84
1114.83
1116.44
1117.67
1118.51
1118.97
1119.04
1118.74
1118.07
1117.04
1115.65
1113.91
1111.83
1109.41
1106.68
1103.63
1100.28
1096.64
1092.74
1088.57
1084.16
1079.51
1074.65
1069.57
1064.3
1058.85
1053.22
1047.42
1041.48
1035.39
1029.17
1022.82
1016.36
1009.79
1003.13
996.369
989.541
982.654
975.717
968.738
961.724
954.685
947.627
940.559
933.487
926.416
919.352
912.313
905.313
898.363
891.473
884.652
877.91
871.254
864.69
858.225
851.881
845.666
839.59
833.658
827.894
822.345
815.895
11463.2
1844.03
732.444
476.18
386.106
346.279
326.636
316.092
310.512
308.16
307.769
309.801
313.957
319.819
327.016
335.215
344.241
353.894
363.972
374.251
384.55
395.061
405.215
414.032
421.4
427.534
432.875
437.198
440.661
443.392
445.58
447.393
448.917
450.185
451.168
451.923
452.515
453.01
453.488
454.038
454.734
455.589
456.568
458.231
460.822
464.626
469.565
475.582
482.756
491.069
500.519
511.116
522.849
535.641
549.432
564.18
579.784
596.272
613.392
630.97
648.878
667.001
685.231
703.462
721.587
739.469
757.041
774.258
791.04
807.3
822.95
837.89
852.07
865.469
878.116
890.047
901.297
911.84
921.857
931.601
941.398
951.08
960.69
970.351
980.064
989.746
999.329
1008.77
1018.03
1027.09
1035.96
1044.62
1053.09
1061.35
1069.41
1077.27
1084.92
1092.36
1099.61
1106.65
1113.48
1120.1
1126.48
1132.63
1138.53
1144.17
1149.54
1154.64
1159.44
1163.93
1168.1
1171.94
1175.45
1178.6
1181.4
1183.83
1185.88
1187.55
1188.84
1189.73
1190.22
1190.3
1190.01
1189.3
1188.21
1186.74
1184.89
1182.67
1180.08
1177.15
1173.86
1170.24
1166.3
1162.04
1157.49
1152.66
1147.56
1142.21
1136.62
1130.8
1124.78
1118.55
1112.14
1105.56
1098.81
1091.91
1084.88
1077.71
1070.43
1063.05
1055.57
1048.01
1040.4
1032.73
1025.02
1017.25
1009.46
1001.64
993.794
985.942
978.087
970.239
962.399
954.576
946.793
939.062
931.392
923.793
916.274
908.847
901.518
894.288
887.165
880.168
873.309
866.597
860.035
853.634
847.491
840.365
11463.7
1816.59
729.956
484.124
396.846
358.285
339.546
329.135
323.41
320.955
320.461
322.177
325.74
330.652
336.521
343.093
350.269
357.922
365.968
374.116
381.935
389.383
396.44
403.316
409.778
415.901
421.744
427.269
432.484
437.349
441.859
445.965
449.533
452.503
455.275
457.958
460.642
463.425
466.419
469.749
473.553
478.018
483.423
489.912
497.79
507.35
518.289
530.528
544.089
558.931
575.017
592.358
611.028
630.683
651.103
672.1
693.46
714.901
736.346
757.682
778.793
799.575
819.951
839.862
859.253
878.078
896.304
913.914
930.874
947.135
962.619
977.151
990.757
1003.46
1015.35
1026.49
1036.93
1046.71
1055.86
1064.51
1072.78
1080.76
1088.65
1096.91
1105.45
1114.01
1122.5
1130.86
1138.99
1146.87
1154.5
1161.89
1169.05
1175.99
1182.69
1189.17
1195.42
1201.47
1207.31
1212.95
1218.4
1223.64
1228.66
1233.44
1237.99
1242.29
1246.35
1250.14
1253.64
1256.85
1259.74
1262.32
1264.57
1266.5
1268.09
1269.31
1270.15
1270.65
1270.76
1270.51
1269.81
1268.76
1267.33
1265.51
1263.31
1260.74
1257.8
1254.49
1250.83
1246.82
1242.46
1237.78
1232.77
1227.45
1221.83
1215.94
1209.79
1203.38
1196.74
1189.87
1182.8
1175.53
1168.08
1160.45
1152.68
1144.76
1136.7
1128.53
1120.26
1111.88
1103.42
1094.9
1086.34
1077.73
1069.09
1060.41
1051.7
1042.97
1034.24
1025.5
1016.78
1008.08
999.408
990.795
982.242
973.753
965.337
957
948.75
940.599
932.554
924.616
916.796
909.114
901.579
894.202
886.981
879.917
873.16
865.377
11462.8
1801.75
732.735
490.595
404.751
366.801
348.423
337.917
332.092
329.547
328.951
330.372
333.554
338.018
343.552
349.815
356.656
363.87
371.334
379.01
387.078
395.04
402.912
410.795
418.628
426.445
434.256
442.053
449.816
457.394
464.819
472.098
479.303
486.617
494.016
501.604
509.495
517.825
526.741
536.414
547.035
558.804
571.913
586.419
602.365
619.552
638.079
658.091
679.522
702.238
726.096
750.977
776.465
802.3
828.198
853.884
879.092
903.578
927.175
949.771
971.293
991.722
1011.09
1029.45
1046.86
1063.37
1079.04
1093.94
1108.13
1121.65
1134.51
1146.76
1158.32
1169.15
1179.41
1189.17
1198.43
1207.24
1215.49
1223.11
1229.99
1236.53
1243.1
1249.93
1256.67
1263.19
1269.44
1275.39
1281.05
1286.4
1291.49
1296.34
1300.95
1305.34
1309.51
1313.47
1317.24
1320.84
1324.28
1327.57
1330.7
1333.66
1336.45
1339.04
1341.44
1343.64
1345.67
1347.47
1349.01
1350.3
1351.33
1352.09
1352.57
1352.79
1352.74
1352.35
1351.56
1350.51
1349.13
1347.43
1345.38
1342.99
1340.26
1337.19
1333.78
1330.03
1325.95
1321.55
1316.82
1311.77
1306.41
1300.74
1294.77
1288.52
1281.99
1275.19
1268.15
1260.87
1253.37
1245.66
1237.75
1229.64
1221.36
1212.92
1204.32
1195.59
1186.74
1177.77
1168.69
1159.52
1150.25
1140.91
1131.51
1122.06
1112.56
1103.04
1093.49
1083.93
1074.36
1064.8
1055.26
1045.74
1036.28
1026.88
1017.55
1008.29
999.108
990.007
980.998
972.093
963.302
954.642
946.13
937.77
929.565
921.524
913.646
905.925
898.553
890.162
11461.8
1790.15
735.61
493.413
409.729
372.741
355.226
345.306
340.416
338.711
338.791
341.384
345.634
351.232
357.848
365.692
374.681
383.825
393.608
404.323
416.065
428.134
440.633
453.675
467.236
481.258
495.656
510.337
525.169
540.188
555.391
570.771
586.383
602.299
618.468
634.959
651.889
669.407
687.703
707.03
727.692
749.732
773.218
798.089
824.223
851.439
879.879
910.032
941.251
972.984
1004.8
1036.06
1066.24
1095.22
1122.75
1148.59
1172.56
1194.54
1214.53
1232.53
1248.61
1262.88
1275.51
1286.85
1296.96
1306
1314.15
1321.57
1328.42
1334.8
1340.84
1346.79
1352.66
1358.54
1364.36
1370.01
1375.41
1380.42
1385
1389.39
1393.66
1398.29
1402.98
1407.2
1410.73
1413.78
1416.46
1418.82
1420.91
1422.76
1424.39
1425.81
1427.05
1428.12
1429.04
1429.83
1430.52
1431.12
1431.64
1432.09
1432.45
1432.72
1432.87
1432.91
1432.83
1432.62
1432.37
1431.92
1431.24
1430.38
1429.35
1428.13
1426.69
1425.05
1423.18