# Residuals   
# Time        	p             	Ux            	Uy            	k             	omega         
0             	N/A           	N/A           	N/A           	N/A           	N/A           
1             	1.000000e+00	1.000000e+00	1.000000e+00	1.000000e+00	1.488736e-01
2             	4.296995e-02	4.896107e-01	3.437105e-01	2.792591e-01	5.266959e-02
3             	1.298189e-01	1.528261e-01	2.476873e-01	1.504748e-01	4.496485e-02
4             	1.108307e-01	8.905826e-02	1.524911e-01	1.096350e-01	2.407790e-02
5             	1.249405e-01	7.244944e-02	1.354549e-01	9.576063e-02	1.792711e-02
6             	1.060486e-01	6.292348e-02	1.063469e-01	8.137092e-02	1.544002e-02
7             	9.566559e-02	5.627792e-02	8.638748e-02	7.242044e-02	1.359683e-02
8             	9.318378e-02	5.055392e-02	8.440267e-02	6.182491e-02	1.239645e-02
9             	9.296949e-02	4.707160e-02	8.066518e-02	5.804401e-02	1.239907e-02
10            	9.480808e-02	4.406279e-02	7.644865e-02	1.097259e-01	3.360332e-01
11            	9.418847e-02	4.083582e-02	7.557122e-02	5.112060e-02	7.933448e-01
12            	9.705341e-02	3.785901e-02	7.605329e-02	4.945113e-02	3.243620e-01
13            	9.434079e-02	3.536137e-02	7.631249e-02	4.680917e-02	2.233470e-02
14            	9.234736e-02	3.309550e-02	7.604037e-02	4.434520e-02	1.291803e-02
15            	9.198321e-02	3.129768e-02	7.583934e-02	5.062292e-02	1.107598e-01
16            	9.022762e-02	2.967389e-02	7.470492e-02	4.040138e-02	6.737291e-01
17            	8.789151e-02	2.817007e-02	7.372213e-02	3.922933e-02	5.830778e-02
18            	8.764333e-02	2.675620e-02	7.236051e-02	3.649693e-02	1.209324e-02
19            	8.891145e-02	2.528945e-02	7.037128e-02	3.600089e-02	7.994874e-03
20            	9.037826e-02	2.382463e-02	6.793239e-02	3.429727e-02	8.050728e-03
21            	9.075625e-02	2.247441e-02	6.518193e-02	3.276813e-02	7.500475e-03
22            	8.982469e-02	2.118028e-02	6.209246e-02	3.183726e-02	6.864501e-03
23            	8.835820e-02	1.990044e-02	5.879610e-02	3.076874e-02	6.921389e-03
24            	8.595368e-02	1.861779e-02	5.522871e-02	2.903331e-02	6.674025e-03
25            	8.428354e-02	1.739706e-02	5.148256e-02	4.835914e-02	2.834656e-01
26            	8.210721e-02	1.644658e-02	4.792104e-02	2.905925e-02	7.663768e-01
27            	7.973445e-02	1.539266e-02	4.455526e-02	2.698309e-02	1.923701e-01
28            	7.706356e-02	1.454273e-02	4.149493e-02	2.671782e-02	2.140867e-02
29            	7.380316e-02	1.379742e-02	3.888565e-02	2.530422e-02	1.638415e-02
30            	7.261635e-02	1.322170e-02	3.687271e-02	3.443123e-02	2.104787e-01
31            	7.135548e-02	1.275602e-02	3.552415e-02	2.359905e-02	7.801756e-01
32            	7.164804e-02	1.244913e-02	3.438208e-02	2.286011e-02	2.121671e-01
33            	7.066669e-02	1.217714e-02	3.401855e-02	2.184740e-02	1.423751e-02
34            	7.083000e-02	1.201842e-02	3.396722e-02	2.077174e-02	7.726827e-03
35            	7.079123e-02	1.195979e-02	3.401248e-02	2.116101e-02	3.146179e-02
36            	7.184216e-02	1.190696e-02	3.455168e-02	2.682741e-02	2.410723e-01
37            	7.063404e-02	1.188674e-02	3.503617e-02	1.923705e-02	7.443548e-01
38            	7.133420e-02	1.195099e-02	3.529996e-02	1.888292e-02	1.180061e-01
39            	7.184973e-02	1.198700e-02	3.571706e-02	2.337111e-02	1.181745e-01
40            	7.064596e-02	1.201878e-02	3.605616e-02	1.782170e-02	6.710708e-01
41            	7.082841e-02	1.203863e-02	3.637959e-02	2.399704e-02	1.976086e-01
42            	7.080401e-02	1.217531e-02	3.653265e-02	1.735404e-02	7.356868e-01
43            	6.972353e-02	1.250793e-02	3.687217e-02	1.940676e-02	3.678784e-01
44            	6.847481e-02	1.233215e-02	3.673072e-02	1.671293e-02	7.099627e-01
45            	6.968727e-02	1.242003e-02	3.676535e-02	1.667376e-02	7.967978e-01
46            	6.783161e-02	1.251256e-02	3.688328e-02	2.090146e-02	6.423953e-01
47            	6.795954e-02	1.300820e-02	3.734737e-02	4.716346e-02	8.112340e-01
48            	6.707760e-02	1.283606e-02	3.760149e-02	1.810679e-02	8.161269e-01
49            	6.722321e-02	1.287391e-02	3.782570e-02	2.216771e-02	7.826392e-01
50            	6.773518e-02	1.313166e-02	3.847846e-02	1.683215e-02	7.485894e-01
51            	6.839729e-02	1.324199e-02	3.909546e-02	1.709414e-02	1.444861e-01
52            	6.912391e-02	1.362789e-02	3.974901e-02	1.731763e-02	2.138095e-02
53            	7.046273e-02	1.394763e-02	4.040755e-02	1.710447e-02	1.053101e-02
54            	7.168850e-02	1.424616e-02	4.121450e-02	1.789899e-02	3.657587e-02
55            	7.334387e-02	1.451722e-02	4.210768e-02	1.750018e-02	2.302552e-01
56            	7.491747e-02	1.474485e-02	4.299434e-02	1.793096e-02	1.364232e-02
57            	7.615360e-02	1.490710e-02	4.386406e-02	1.817147e-02	1.104684e-02
58            	7.717639e-02	1.509419e-02	4.472762e-02	1.864804e-02	1.092786e-02
59            	7.877635e-02	1.518999e-02	4.552050e-02	1.853096e-02	7.770750e-03
60            	8.006386e-02	1.524893e-02	4.619515e-02	1.888335e-02	7.573968e-03
61            	8.175319e-02	1.527896e-02	4.679522e-02	2.081678e-02	8.169670e-02
62            	8.238614e-02	1.532412e-02	4.724111e-02	1.950369e-02	5.812413e-01
63            	8.403151e-02	1.527467e-02	4.762944e-02	1.966249e-02	3.532453e-02
64            	8.537829e-02	1.522206e-02	4.785781e-02	1.991975e-02	1.113697e-02
65            	8.685816e-02	1.525225e-02	4.803303e-02	1.984858e-02	1.049807e-02
66            	8.749222e-02	1.525894e-02	4.809312e-02	2.014313e-02	1.115249e-02
67            	8.880756e-02	1.524109e-02	4.805152e-02	2.031827e-02	7.971256e-03
68            	8.797691e-02	1.523133e-02	4.784860e-02	2.035533e-02	8.452852e-03
69            	8.695489e-02	1.519004e-02	4.757338e-02	2.018835e-02	8.124024e-03
70            	8.599373e-02	1.515127e-02	4.728015e-02	2.306109e-02	1.269804e-01
71            	8.543621e-02	1.511787e-02	4.717215e-02	2.030197e-02	7.052967e-01
72            	8.349976e-02	1.504499e-02	4.732064e-02	2.023219e-02	7.780658e-02
73            	8.180541e-02	1.507263e-02	4.770185e-02	2.313951e-02	1.455794e-01
74            	7.936256e-02	1.506553e-02	4.854380e-02	2.004625e-02	7.225198e-01
75            	7.821933e-02	1.502888e-02	4.980469e-02	2.404293e-02	2.263832e-01
76            	7.782619e-02	1.524485e-02	5.147367e-02	1.983010e-02	7.812823e-01
77            	7.738755e-02	1.543012e-02	5.348159e-02	1.982626e-02	2.367416e-01
78            	7.814147e-02	1.567382e-02	5.565044e-02	1.990324e-02	1.643012e-02
79            	7.916794e-02	1.589000e-02	5.774687e-02	1.971719e-02	9.503292e-03
80            	8.105250e-02	1.602727e-02	5.968069e-02	2.097790e-02	8.693644e-02
81            	8.210788e-02	1.613451e-02	6.082624e-02	1.950516e-02	5.607797e-01
82            	8.234776e-02	1.615918e-02	6.101189e-02	2.221082e-02	1.587718e-01
83            	8.197063e-02	1.624226e-02	6.038519e-02	1.947630e-02	7.230334e-01
84            	8.038106e-02	1.621885e-02	5.954967e-02	1.924186e-02	9.948350e-02
85            	7.923724e-02	1.632925e-02	5.876075e-02	1.906014e-02	1.774741e-02
86            	7.771172e-02	1.642087e-02	5.843671e-02	1.872211e-02	1.483417e-02
87            	7.623227e-02	1.650710e-02	5.832842e-02	1.803004e-02	1.186745e-02
88            	7.518151e-02	1.666688e-02	5.829767e-02	1.812815e-02	1.330499e-02
89            	7.627828e-02	1.685020e-02	5.815379e-02	1.765122e-02	9.158243e-03
90            	7.716597e-02	1.710022e-02	5.814746e-02	1.766024e-02	2.568080e-02
91            	7.827675e-02	1.743035e-02	5.850073e-02	1.740457e-02	1.126747e-01
92            	8.029809e-02	1.774376e-02	5.883034e-02	1.734032e-02	1.132453e-02
93            	8.202219e-02	1.803486e-02	5.946382e-02	1.717301e-02	8.103992e-03
94            	8.463920e-02	1.827000e-02	6.016842e-02	2.010012e-02	1.715848e-01
95            	8.733596e-02	1.856026e-02	6.091141e-02	1.776897e-02	7.547603e-01
96            	8.940665e-02	1.893602e-02	6.178209e-02	1.838205e-02	2.206453e-01
97            	9.017487e-02	1.902410e-02	6.237517e-02	2.434365e-02	6.789137e-01
98            	9.162036e-02	1.907002e-02	6.268037e-02	2.612174e-02	8.161296e-01
99            	9.352424e-02	1.899261e-02	6.318393e-02	1.966981e-02	8.166841e-01
100           	9.584937e-02	1.893812e-02	6.365354e-02	2.035897e-02	7.849145e-01
101           	9.698217e-02	1.885002e-02	6.380183e-02	2.057797e-02	2.387672e-01
102           	9.841867e-02	1.869133e-02	6.361624e-02	2.186164e-02	1.005560e-01
103           	9.547919e-02	1.850697e-02	6.350116e-02	2.311314e-02	6.332944e-01
104           	9.552567e-02	1.830243e-02	6.338042e-02	2.114713e-02	7.299329e-01
105           	9.770159e-02	1.811780e-02	6.319757e-02	2.156356e-02	1.038305e-01
106           	9.879369e-02	1.787289e-02	6.303311e-02	2.163851e-02	2.126530e-02
107           	9.835376e-02	1.766921e-02	6.285776e-02	2.385239e-02	1.631852e-01
108           	9.637646e-02	1.741168e-02	6.292035e-02	2.408139e-02	7.524638e-01
109           	9.605658e-02	1.713100e-02	6.330141e-02	2.200854e-02	7.475924e-01
110           	9.392030e-02	1.689121e-02	6.370552e-02	2.219925e-02	1.266247e-01
111           	9.245073e-02	1.666774e-02	6.436304e-02	2.246096e-02	1.804947e-02
112           	8.924697e-02	1.647680e-02	6.508852e-02	2.417360e-02	1.194545e-01
113           	8.746530e-02	1.632665e-02	6.582343e-02	2.453723e-02	6.981608e-01
114           	8.697885e-02	1.615965e-02	6.648516e-02	2.295375e-02	7.219917e-01
115           	8.643180e-02	1.611377e-02	6.708740e-02	2.310771e-02	9.335370e-02
116           	8.587104e-02	1.606748e-02	6.760349e-02	2.334756e-02	1.598026e-02
117           	8.547655e-02	1.613896e-02	6.808631e-02	2.451041e-02	9.480579e-02
118           	8.547370e-02	1.626009e-02	6.843732e-02	2.371377e-02	5.761122e-01
119           	8.485997e-02	1.639808e-02	6.861428e-02	2.400963e-02	3.771250e-02
120           	8.452321e-02	1.654589e-02	6.878086e-02	2.414283e-02	1.717052e-02
121           	8.303279e-02	1.686288e-02	6.859993e-02	2.441861e-02	9.699251e-03
122           	8.192930e-02	1.712155e-02	6.843854e-02	2.463753e-02	9.135977e-03
123           	8.151353e-02	1.742703e-02	6.825932e-02	2.493182e-02	7.929262e-03
124           	8.117932e-02	1.773463e-02	6.810803e-02	2.530230e-02	1.722600e-02
125           	8.256322e-02	1.810189e-02	6.800474e-02	2.581004e-02	5.011975e-02
126           	8.404595e-02	1.846226e-02	6.793268e-02	2.583562e-02	1.021995e-02
127           	8.488707e-02	1.881932e-02	6.786252e-02	2.625568e-02	8.002546e-03
128           	8.555253e-02	1.918582e-02	6.745747e-02	2.904003e-02	1.562491e-01
129           	8.665412e-02	1.959627e-02	6.714353e-02	2.669829e-02	7.422349e-01
130           	8.851283e-02	2.002759e-02	6.685574e-02	4.668953e-02	7.194050e-01
131           	9.111832e-02	2.063159e-02	6.647552e-02	4.277072e-02	8.166716e-01
132           	9.138254e-02	2.096430e-02	6.650455e-02	2.683852e-02	8.174414e-01
133           	9.231753e-02	2.120885e-02	6.639599e-02	2.714622e-02	8.010225e-01
134           	9.319435e-02	2.131722e-02	6.636755e-02	2.710135e-02	4.530843e-01
135           	9.239232e-02	2.146838e-02	6.652241e-02	2.661132e-02	2.956645e-02
136           	9.271263e-02	2.143582e-02	6.677941e-02	2.878374e-02	1.240693e-01
137           	9.118617e-02	2.134856e-02	6.692861e-02	2.609320e-02	6.918229e-01
138           	9.174455e-02	2.095792e-02	6.729911e-02	2.581617e-02	1.365256e-01
139           	9.041765e-02	2.104695e-02	6.729193e-02	2.482145e-02	1.835517e-01
140           	8.949795e-02	2.090622e-02	6.722490e-02	2.419959e-02	2.022309e-02
141           	8.907475e-02	2.068588e-02	6.708159e-02	2.618680e-02	1.301991e-01
142           	8.924434e-02	2.044326e-02	6.662743e-02	2.305366e-02	6.746601e-01
143           	9.003105e-02	2.009975e-02	6.606890e-02	2.259433e-02	6.313736e-02
144           	9.022523e-02	1.974390e-02	6.540947e-02	2.173088e-02	1.614368e-02
145           	8.563503e-02	1.945953e-02	6.462064e-02	2.513306e-02	1.859016e-01
146           	8.125620e-02	1.910419e-02	6.336721e-02	2.157074e-02	7.652015e-01
147           	8.050671e-02	1.844548e-02	6.117192e-02	1.988049e-02	4.968400e-01
148           	8.024270e-02	1.769624e-02	5.842882e-02	1.931188e-02	3.141596e-02
149           	7.888691e-02	1.702808e-02	5.536887e-02	1.861954e-02	1.401296e-02
150           	7.357624e-02	1.631239e-02	5.264981e-02	2.034628e-02	1.177179e-01
151           	6.956489e-02	1.549578e-02	4.975218e-02	2.013325e-02	6.907197e-01
152           	6.797624e-02	1.458131e-02	4.661652e-02	1.693184e-02	7.099774e-01
153           	6.745137e-02	1.375015e-02	4.329813e-02	1.989196e-02	3.377838e-01
154           	6.563303e-02	1.297285e-02	4.070592e-02	2.084681e-02	8.061231e-01
155           	6.492215e-02	1.201403e-02	3.870412e-02	1.608620e-02	8.162912e-01
156           	6.277083e-02	1.111096e-02	3.725312e-02	1.564410e-02	7.707741e-01
157           	6.274436e-02	1.045177e-02	3.622855e-02	1.552666e-02	1.824756e-01
158           	6.214787e-02	9.916863e-03	3.519071e-02	1.526817e-02	1.370896e-02
159           	6.096876e-02	9.557894e-03	3.436652e-02	1.496380e-02	7.330190e-03
160           	6.025908e-02	9.321418e-03	3.378083e-02	1.480732e-02	6.502181e-03
161           	6.036532e-02	9.174678e-03	3.347672e-02	1.800267e-02	1.514290e-01
162           	6.130855e-02	9.147323e-03	3.349778e-02	1.616114e-02	7.419251e-01
163           	6.207754e-02	8.974116e-03	3.405770e-02	1.477877e-02	5.977653e-01
164           	6.257099e-02	9.092095e-03	3.393390e-02	1.442007e-02	3.699557e-02
165           	6.346540e-02	9.111991e-03	3.423631e-02	1.423592e-02	7.536632e-03
166           	6.414179e-02	9.163643e-03	3.468858e-02	1.723811e-02	1.656214e-01
167           	6.549338e-02	9.267768e-03	3.507704e-02	1.378010e-02	7.534964e-01
168           	6.649673e-02	9.263656e-03	3.567552e-02	1.406844e-02	1.382853e-01
169           	6.784928e-02	9.411838e-03	3.611380e-02	1.364113e-02	9.178571e-03
170           	6.866893e-02	9.494755e-03	3.667613e-02	1.361163e-02	5.148353e-03
171           	6.944266e-02	9.571781e-03	3.714284e-02	1.644014e-02	1.493359e-01
172           	7.045440e-02	9.674812e-03	3.773406e-02	1.357696e-02	7.442210e-01
173           	7.196965e-02	9.892710e-03	3.858662e-02	1.357190e-02	1.213401e-01
174           	7.160399e-02	9.778301e-03	3.897393e-02	1.359607e-02	9.227660e-03
175           	7.193453e-02	9.819502e-03	3.933632e-02	1.353954e-02	5.698134e-03
176           	7.248332e-02	9.871558e-03	3.978460e-02	1.667932e-02	1.699341e-01
177           	7.285493e-02	9.912506e-03	4.021478e-02	1.468759e-02	7.593928e-01
178           	7.360068e-02	9.925722e-03	4.062387e-02	1.368511e-02	5.928778e-01
179           	7.405376e-02	9.935735e-03	4.101450e-02	1.347669e-02	3.593316e-02
180           	7.366253e-02	9.894002e-03	4.145797e-02	1.352517e-02	7.892947e-03
181           	7.348245e-02	9.904706e-03	4.178574e-02	1.627125e-02	1.557780e-01
182           	7.305156e-02	9.869806e-03	4.220648e-02	1.343135e-02	7.489869e-01
183           	7.267515e-02	9.726719e-03	4.272513e-02	1.356906e-02	1.286488e-01
184           	7.276681e-02	9.787702e-03	4.326198e-02	1.354404e-02	1.841664e-02
185           	7.173136e-02	9.727740e-03	4.324949e-02	1.328491e-02	6.314901e-03
186           	7.051374e-02	9.658139e-03	4.354238e-02	1.619155e-02	1.710323e-01
187           	6.999539e-02	9.614167e-03	4.374552e-02	1.314731e-02	7.590153e-01
188           	6.949179e-02	9.540025e-03	4.409075e-02	1.325201e-02	1.463036e-01
189           	6.826731e-02	9.495947e-03	4.452744e-02	1.302512e-02	9.313580e-03
190           	6.780614e-02	9.428691e-03	4.498796e-02	1.304581e-02	6.547673e-03
191           	6.688346e-02	9.413154e-03	4.539838e-02	1.550940e-02	1.513935e-01
192           	6.684102e-02	9.379054e-03	4.593140e-02	1.285004e-02	7.430294e-01
193           	6.692572e-02	9.306062e-03	4.657661e-02	1.288874e-02	1.184585e-01
194           	6.766949e-02	9.327603e-03	4.749728e-02	1.308138e-02	2.486987e-02
195           	6.693948e-02	9.298593e-03	4.768755e-02	1.262846e-02	1.289070e-02
196           	6.682549e-02	9.243501e-03	4.850683e-02	1.577034e-02	1.846889e-01
197           	6.773741e-02	9.225619e-03	4.912200e-02	1.252945e-02	7.647915e-01
198           	6.805003e-02	9.328424e-03	4.995431e-02	1.266131e-02	1.720646e-01
199           	6.822589e-02	9.148310e-03	5.061739e-02	1.251540e-02	1.035017e-02
200           	6.820006e-02	9.092302e-03	5.141958e-02	1.231927e-02	6.800417e-03
201           	6.869553e-02	9.038283e-03	5.220160e-02	1.483228e-02	1.539180e-01
202           	7.018845e-02	9.011369e-03	5.300483e-02	1.241673e-02	7.442943e-01
203           	6.985476e-02	8.921563e-03	5.385257e-02	1.196402e-02	1.201950e-01
204           	7.079567e-02	8.813620e-03	5.454275e-02	1.214244e-02	1.410377e-02
205           	7.070814e-02	8.719926e-03	5.540253e-02	1.198674e-02	7.085004e-03
206           	6.970987e-02	8.609464e-03	5.591927e-02	1.176909e-02	6.054622e-03
207           	6.939472e-02	8.488827e-03	5.623897e-02	1.280002e-02	7.252784e-02
208           	6.811105e-02	8.376965e-03	5.587593e-02	1.163311e-02	6.102391e-01
209           	6.725647e-02	8.213224e-03	5.576593e-02	1.143742e-02	3.727970e-02
210           	6.700706e-02	8.014327e-03	5.574398e-02	1.156140e-02	8.145284e-03
211           	6.578763e-02	7.854163e-03	5.600447e-02	1.320943e-02	1.267850e-01
212           	6.364889e-02	7.674655e-03	5.637501e-02	1.108437e-02	6.813969e-01
213           	6.351976e-02	7.497481e-03	5.628762e-02	1.094574e-02	5.966255e-02
214           	6.128652e-02	7.339312e-03	5.641022e-02	1.090264e-02	8.094336e-03
215           	6.118402e-02	7.194143e-03	5.663232e-02	1.071366e-02	7.751025e-03
216           	5.954918e-02	7.034462e-03	5.713907e-02	1.036464e-02	6.920658e-03
217           	5.932121e-02	6.904086e-03	5.718717e-02	1.002486e-02	4.765180e-03
218           	5.948148e-02	6.805321e-03	5.650618e-02	1.003569e-02	4.680122e-03
219           	6.030090e-02	6.699669e-03	5.551992e-02	1.138251e-02	1.020979e-01
220           	6.113955e-02	6.596827e-03	5.480104e-02	9.457349e-03	6.595357e-01
221           	6.240266e-02	6.439137e-03	5.397460e-02	9.386033e-03	5.321642e-02
222           	6.286842e-02	6.336029e-03	5.299877e-02	9.307372e-03	6.893160e-03
223           	6.451031e-02	6.203388e-03	5.160894e-02	8.809494e-03	4.378726e-03
224           	6.496955e-02	6.036980e-03	5.021048e-02	1.277198e-02	2.469210e-01
225           	6.562614e-02	5.873126e-03	4.856782e-02	8.666597e-03	7.656733e-01
226           	6.724641e-02	5.669211e-03	4.714312e-02	8.465004e-03	1.775062e-01
227           	6.821267e-02	5.464233e-03	4.515776e-02	8.038238e-03	1.083608e-02
228           	6.652351e-02	5.244849e-03	4.296668e-02	7.805573e-03	6.914378e-03
229           	6.331442e-02	4.993955e-03	4.017273e-02	1.012210e-02	1.705118e-01
230           	5.816340e-02	4.718973e-03	3.711503e-02	7.303610e-03	7.576391e-01
231           	5.357639e-02	4.440098e-03	3.466395e-02	7.468161e-03	1.380156e-01
232           	5.121348e-02	4.165390e-03	3.298372e-02	7.096870e-03	1.031130e-02
233           	4.655691e-02	3.879773e-03	3.105025e-02	6.980558e-03	4.296047e-03
234           	4.193981e-02	3.609556e-03	2.911392e-02	9.551182e-03	1.784201e-01
235           	3.756933e-02	3.345909e-03	2.694918e-02	6.643121e-03	7.620421e-01
236           	3.350135e-02	3.081680e-03	2.429701e-02	6.385741e-03	1.492771e-01
237           	3.222818e-02	2.831901e-03	2.148475e-02	6.159819e-03	1.249758e-02
238           	3.014610e-02	2.625638e-03	1.897191e-02	5.950135e-03	6.797959e-03
239           	3.012888e-02	2.460037e-03	1.697698e-02	6.027048e-03	4.478959e-03
240           	2.921860e-02	2.318256e-03	1.543250e-02	5.697891e-03	3.800262e-03
241           	2.739834e-02	2.187025e-03	1.450780e-02	6.878666e-03	8.745094e-02
242           	2.586526e-02	2.107807e-03	1.379630e-02	5.411534e-03	6.617692e-01
243           	2.581413e-02	2.033358e-03	1.351581e-02	5.534187e-03	4.768508e-02
244           	2.442572e-02	1.985308e-03	1.317657e-02	5.209895e-03	1.044539e-02
245           	2.327763e-02	1.933406e-03	1.310806e-02	5.140466e-03	7.482130e-03
246           	2.225660e-02	1.910502e-03	1.289920e-02	6.772516e-03	7.548155e-02
247           	2.136327e-02	1.887605e-03	1.294001e-02	4.996386e-03	6.640675e-01
248           	2.343068e-02	1.858780e-03	1.290071e-02	4.900768e-03	5.150720e-02
249           	2.166993e-02	1.820251e-03	1.284249e-02	4.889684e-03	5.891463e-03
250           	2.109923e-02	1.799035e-03	1.266853e-02	4.698104e-03	2.506446e-03
251           	2.076354e-02	1.771653e-03	1.259319e-02	4.562288e-03	2.273227e-03
252           	2.039604e-02	1.739723e-03	1.232796e-02	4.639493e-03	2.109336e-03
253           	2.060145e-02	1.725436e-03	1.243053e-02	4.630899e-03	2.318644e-03
254           	2.072605e-02	1.697540e-03	1.215479e-02	4.350690e-03	2.195244e-03
255           	1.988010e-02	1.664155e-03	1.191054e-02	4.309650e-03	2.871457e-03
256           	1.919083e-02	1.649457e-03	1.177768e-02	4.295295e-03	2.835225e-03
257           	1.892101e-02	1.621008e-03	1.164968e-02	4.140622e-03	2.032335e-03
258           	1.884595e-02	1.592842e-03	1.145893e-02	4.167766e-03	2.353998e-03
259           	1.866726e-02	1.567302e-03	1.132304e-02	4.148194e-03	2.332872e-03
260           	1.721580e-02	1.541485e-03	1.128298e-02	4.053040e-03	1.928772e-03
261           	1.770150e-02	1.505755e-03	1.112298e-02	3.968761e-03	1.869485e-03
262           	1.602840e-02	1.478561e-03	1.093269e-02	3.872207e-03	1.917814e-03
263           	1.647871e-02	1.455323e-03	1.077528e-02	5.249984e-03	8.823035e-02
264           	1.698773e-02	1.463975e-03	1.086506e-02	4.006592e-03	6.252873e-01
265           	1.857987e-02	1.473661e-03	1.111294e-02	1.368110e-02	5.381639e-01
266           	1.813188e-02	1.485577e-03	1.097507e-02	1.695822e-02	8.138539e-01
267           	1.814308e-02	1.450719e-03	1.100032e-02	4.335717e-03	8.165109e-01
268           	1.822941e-02	1.409935e-03	1.105653e-02	3.733379e-03	7.852123e-01
269           	1.794545e-02	1.354663e-03	1.088015e-02	3.733440e-03	2.744842e-01
270           	1.888228e-02	1.338359e-03	1.082473e-02	3.813844e-03	3.059010e-02
271           	1.755686e-02	1.303477e-03	1.069149e-02	3.891034e-03	1.039493e-01
272           	1.756378e-02	1.283234e-03	1.062713e-02	3.614826e-03	4.355256e-01
273           	1.723010e-02	1.262686e-03	1.079358e-02	3.417039e-03	2.042410e-02
274           	1.608752e-02	1.234820e-03	1.048793e-02	3.432120e-03	3.498525e-03
275           	1.667058e-02	1.242891e-03	1.057375e-02	3.623284e-03	2.403575e-03
276           	1.772857e-02	1.231679e-03	1.064498e-02	3.399362e-03	2.599561e-03
277           	1.668887e-02	1.225699e-03	1.058310e-02	3.346965e-03	2.225327e-03
278           	1.632641e-02	1.212738e-03	1.058783e-02	6.149941e-03	1.635857e-01
279           	1.670255e-02	1.224068e-03	1.077719e-02	3.303847e-03	7.573908e-01
280           	1.607289e-02	1.196112e-03	1.074374e-02	3.373901e-03	1.380524e-01
281           	1.737733e-02	1.200577e-03	1.099590e-02	3.472941e-03	1.071664e-02
282           	1.677309e-02	1.201231e-03	1.104118e-02	4.581836e-03	8.940104e-02
283           	1.572432e-02	1.211574e-03	1.125600e-02	4.167775e-03	6.205237e-01
284           	1.601692e-02	1.213368e-03	1.120443e-02	3.360046e-03	5.828018e-01
285           	1.682966e-02	1.222083e-03	1.142795e-02	3.307072e-03	3.696476e-02
286           	1.610947e-02	1.209717e-03	1.155572e-02	3.228746e-03	8.952172e-03
287           	1.770705e-02	1.241599e-03	1.156104e-02	7.320156e-03	2.410486e-01
288           	1.869896e-02	1.254831e-03	1.183149e-02	3.468501e-03	7.949419e-01
289           	1.633053e-02	1.232600e-03	1.168696e-02	3.134643e-03	3.070388e-01
290           	1.619837e-02	1.223346e-03	1.182468e-02	3.223193e-03	1.349173e-02
291           	1.709092e-02	1.226008e-03	1.163747e-02	3.165752e-03	5.095642e-03
292           	1.722099e-02	1.222745e-03	1.166491e-02	5.719415e-03	1.444130e-01
293           	1.753195e-02	1.239232e-03	1.155429e-02	3.246748e-03	7.338322e-01
294           	1.639602e-02	1.200653e-03	1.167170e-02	2.969641e-03	1.005342e-01
295           	1.540888e-02	1.178648e-03	1.139619e-02	3.172027e-03	6.509114e-03
296           	1.641254e-02	1.174656e-03	1.129874e-02	3.189694e-03	3.608804e-03
297           	1.643197e-02	1.155476e-03	1.137060e-02	5.646396e-03	1.722338e-01
298           	1.521333e-02	1.109499e-03	1.100669e-02	2.807788e-03	7.586412e-01
299           	1.425326e-02	1.067569e-03	1.067222e-02	2.928935e-03	1.448046e-01
300           	1.515834e-02	1.039475e-03	1.062007e-02	3.010201e-03	7.753433e-03
301           	1.442344e-02	1.014523e-03	1.035440e-02	2.907169e-03	3.352866e-03
302           	1.491908e-02	9.864648e-04	9.921489e-03	5.480210e-03	1.586868e-01
303           	1.434244e-02	9.522660e-04	1.000743e-02	3.012079e-03	7.513923e-01
304           	1.295389e-02	9.112601e-04	9.682075e-03	2.618897e-03	1.272642e-01
305           	1.327818e-02	8.670342e-04	9.336483e-03	2.809212e-03	6.902344e-03
306           	1.384755e-02	8.454022e-04	9.185678e-03	4.578944e-03	1.102970e-01
307           	1.397520e-02	8.285503e-04	8.978060e-03	4.779482e-03	6.867190e-01
308           	1.444015e-02	8.026598e-04	9.057422e-03	2.898550e-03	7.221286e-01
309           	1.410712e-02	7.652901e-04	8.895466e-03	2.925050e-03	9.320011e-02
310           	1.378128e-02	7.391360e-04	8.637823e-03	2.715387e-03	4.691673e-02
311           	1.490994e-02	7.340833e-04	8.447786e-03	6.213088e-03	2.073076e-01
312           	1.608629e-02	7.457709e-04	8.550059e-03	5.780909e-03	7.830511e-01
313           	1.469067e-02	7.130548e-04	8.357566e-03	2.758150e-03	7.611372e-01
314           	1.408878e-02	7.003001e-04	8.208256e-03	2.725739e-03	1.603484e-01
315           	1.379620e-02	6.875118e-04	8.022002e-03	2.733941e-03	1.002906e-02
316           	1.418671e-02	6.837073e-04	7.941081e-03	2.718772e-03	5.869226e-03
317           	1.398220e-02	6.913187e-04	7.820150e-03	3.986881e-03	8.882243e-02
318           	1.270359e-02	6.726589e-04	7.500107e-03	3.546752e-03	6.453692e-01
319           	1.241326e-02	6.585802e-04	7.587072e-03	2.680416e-03	5.851001e-01
320           	1.179792e-02	6.525549e-04	7.331948e-03	2.684477e-03	3.109365e-02
321           	1.315737e-02	6.521089e-04	7.179023e-03	2.646268e-03	7.224251e-03
322           	1.204824e-02	6.428980e-04	6.988595e-03	4.625702e-03	1.377268e-01
323           	1.244286e-02	6.369512e-04	6.628377e-03	2.504410e-03	7.308078e-01
324           	1.298192e-02	6.634850e-04	7.803085e-03	2.918615e-03	9.615706e-02
325           	1.315058e-02	6.304882e-04	6.671820e-03	2.404194e-03	8.447148e-03
326           	1.218738e-02	6.134791e-04	6.214773e-03	2.510830e-03	4.229308e-03
327           	1.236397e-02	5.999598e-04	6.141025e-03	2.411478e-03	2.505679e-03
328           	1.126129e-02	5.887451e-04	5.993441e-03	4.187354e-03	1.242343e-01
329           	1.150505e-02	5.836787e-04	5.806586e-03	2.513136e-03	6.790571e-01
330           	1.154875e-02	5.644997e-04	5.611661e-03	2.348037e-03	5.621306e-02
331           	1.043861e-02	5.538567e-04	5.767343e-03	2.421391e-03	7.430484e-03
332           	1.150226e-02	5.475904e-04	5.734357e-03	2.525356e-03	5.334274e-03
333           	1.062819e-02	5.377779e-04	5.529380e-03	2.998592e-03	4.930134e-02
334           	1.009380e-02	5.143671e-04	5.419470e-03	2.344136e-03	3.780441e-01
335           	9.757004e-03	5.011578e-04	5.252403e-03	2.377841e-03	1.443227e-02
336           	1.087860e-02	5.007744e-04	5.507617e-03	2.479362e-03	4.911879e-03
337           	9.781606e-03	4.860447e-04	5.296214e-03	2.321383e-03	2.525534e-03
338           	9.807126e-03	4.714750e-04	5.143171e-03	2.293924e-03	2.177275e-03
339           	9.817368e-03	4.554887e-04	5.065282e-03	2.287628e-03	1.946184e-03
340           	9.617863e-03	4.530518e-04	5.044498e-03	3.665855e-03	8.701113e-02
341           	1.016267e-02	4.648248e-04	5.074446e-03	3.429291e-03	6.338982e-01
342           	9.583522e-03	4.504938e-04	5.187417e-03	2.311639e-03	5.977193e-01
343           	1.025178e-02	4.341730e-04	5.057914e-03	2.230710e-03	3.439571e-02
344           	9.867759e-03	4.331589e-04	4.923407e-03	2.332300e-03	5.548096e-03
345           	1.001156e-02	4.352002e-04	5.011214e-03	2.199686e-03	4.898332e-03
346           	8.898073e-03	4.195585e-04	4.890099e-03	2.210976e-03	4.383660e-03
347           	8.496487e-03	4.249627e-04	4.905689e-03	2.283985e-03	2.866829e-03
348           	1.024932e-02	4.279062e-04	4.933729e-03	3.388209e-03	8.716108e-02
349           	9.509487e-03	4.187722e-04	4.711090e-03	4.612049e-03	5.892416e-01
350           	9.789861e-03	4.379232e-04	4.880660e-03	2.450584e-03	7.358051e-01
351           	1.130362e-02	4.754641e-04	5.292125e-03	6.343886e-03	3.611947e-01
352           	1.188280e-02	5.080580e-04	5.075026e-03	2.025510e-02	8.067548e-01
353           	1.144192e-02	4.628966e-04	5.043234e-03	2.573357e-03	8.165214e-01
354           	1.081597e-02	4.380817e-04	4.943460e-03	2.075744e-03	7.858547e-01
355           	1.049770e-02	4.328042e-04	4.715993e-03	2.259280e-03	2.941642e-01
356           	1.050608e-02	4.222468e-04	4.863638e-03	2.376756e-03	3.525417e-02
357           	1.101578e-02	4.202323e-04	4.750807e-03	2.257432e-03	6.140145e-03
358           	1.097215e-02	4.271632e-04	4.806930e-03	2.119145e-03	3.469639e-03
359           	1.040203e-02	4.084619e-04	4.567274e-03	2.173964e-03	2.842110e-03
360           	9.950858e-03	4.053829e-04	4.846412e-03	2.137716e-03	2.425778e-03
361           	1.005329e-02	3.933540e-04	4.728032e-03	2.025002e-03	2.154722e-03
362           	1.075915e-02	3.992142e-04	4.824510e-03	2.150511e-03	1.969997e-03
363           	1.152966e-02	4.109700e-04	4.908003e-03	3.491740e-03	8.894179e-02
364           	1.252276e-02	4.290918e-04	5.115333e-03	2.420213e-03	6.098448e-01
365           	1.269444e-02	4.368880e-04	5.621847e-03	2.268958e-03	4.128621e-02
366           	1.171875e-02	4.324658e-04	5.452970e-03	2.144458e-03	9.252031e-03
367           	1.215941e-02	4.194448e-04	5.342502e-03	2.117592e-03	7.976908e-03
368           	1.278004e-02	4.440480e-04	5.529459e-03	5.646038e-03	2.234635e-01
369           	1.330660e-02	4.598563e-04	5.592136e-03	2.493945e-03	7.902394e-01
370           	1.334587e-02	4.756668e-04	5.756937e-03	3.288136e-03	3.031928e-01
371           	1.315454e-02	4.987125e-04	5.933045e-03	2.372992e-03	6.066011e-01
372           	1.341044e-02	5.140678e-04	6.021043e-03	2.123610e-03	3.757028e-02