/*--------------------------------*- C++ -*----------------------------------*\
  =========                 |
  \\      /  F ield         | OpenFOAM: The Open Source CFD Toolbox
   \\    /   O peration     | Website:  https://openfoam.org
    \\  /    A nd           | Version:  13
     \\/     M anipulation  |
\*---------------------------------------------------------------------------*/
FoamFile
{
    format      ascii;
    class       volScalarField;
    location    "1900";
    object      k;
}
// * * * * * * * * * * * * * * * * * * * * * * * * * * * * * * * * * * * * * //

dimensions      [0 2 -2 0 0 0 0];

internalField   nonuniform List<scalar> 
12225
(
0.666799
1.34267
1.70296
1.94093
2.07827
1.84982
1.92123
1.64169
1.59422
1.77408
1.3386
2.20883
2.22268
2.63779
2.23339
1.66182
1.51246
1.44666
0.391627
0.438591
0.494677
0.546788
0.715003
0.761319
0.784514
0.768114
0.790953
0.818706
0.802312
0.831371
0.78241
0.810071
0.821716
0.806605
0.799869
0.824641
0.375726
0.376156
0.391948
0.386453
0.377139
0.332036
0.343535
0.317062
0.286143
0.288714
0.271292
0.247955
0.230836
0.230033
0.231752
0.236978
0.243833
0.267319
0.373928
0.372169
0.372323
0.362254
0.328602
0.278833
0.232605
0.192239
0.156778
0.138104
0.127899
0.124017
0.120154
0.119263
0.125478
0.129627
0.136164
0.151086
0.373808
0.37104
0.368827
0.351121
0.316631
0.264087
0.216414
0.175325
0.146414
0.127158
0.120527
0.115341
0.110268
0.114818
0.122285
0.139073
0.157677
0.176021
0.373688
0.370941
0.368184
0.353452
0.329479
0.290899
0.258199
0.225684
0.19596
0.179932
0.168635
0.16047
0.163634
0.162895
0.163807
0.179279
0.199533
0.218955
0.373885
0.371282
0.368614
0.359736
0.343914
0.325706
0.303878
0.286697
0.267649
0.258231
0.246611
0.242381
0.23648
0.234819
0.233787
0.242055
0.250793
0.261248
0.373884
0.371526
0.369271
0.364617
0.35576
0.346056
0.33498
0.32607
0.317458
0.310838
0.305338
0.29955
0.293368
0.291147
0.289145
0.28815
0.291658
0.295302
0.373842
0.371584
0.369666
0.366487
0.361673
0.356513
0.350715
0.345901
0.34126
0.337931
0.334969
0.332234
0.330081
0.3282
0.326606
0.325137
0.324869
0.321819
0.373826
0.371593
0.369603
0.367178
0.364162
0.360865
0.357505
0.354451
0.351649
0.349317
0.347352
0.345522
0.344046
0.342606
0.341417
0.340066
0.339088
0.337585
0.373832
0.371563
0.369501
0.367369
0.365103
0.362695
0.360341
0.358084
0.35604
0.354162
0.352556
0.351027
0.349727
0.348422
0.347295
0.34603
0.344904
0.343552
0.373835
0.371554
0.369444
0.367393
0.365373
0.363327
0.36136
0.359451
0.357695
0.356027
0.35454
0.353112
0.351842
0.350576
0.349431
0.348215
0.347091
0.345851
0.373834
0.371554
0.369419
0.367381
0.365437
0.363541
0.361736
0.359993
0.358361
0.3568
0.35536
0.353974
0.3527
0.35145
0.350294
0.349123
0.348021
0.346882
0.37383
0.371555
0.369407
0.367367
0.365436
0.363587
0.361835
0.360156
0.358571
0.357054
0.355627
0.35426
0.352973
0.351733
0.350562
0.349422
0.348335
0.347271
0.373828
0.371554
0.3694
0.367358
0.365422
0.363583
0.361836
0.360174
0.358594
0.357091
0.355661
0.354299
0.353002
0.351765
0.350585
0.349456
0.348377
0.347343
0.373826
0.371552
0.369396
0.36735
0.365412
0.363569
0.361821
0.360157
0.358578
0.357071
0.35564
0.354273
0.352974
0.351731
0.35055
0.349419
0.348344
0.347314
0.373826
0.37155
0.369392
0.367346
0.365404
0.36356
0.361808
0.360143
0.358559
0.357051
0.355615
0.354247
0.352942
0.351699
0.350512
0.349382
0.348302
0.347274
0.373825
0.371549
0.369391
0.367343
0.3654
0.363555
0.361801
0.360134
0.358547
0.357037
0.355598
0.354228
0.352921
0.351676
0.350487
0.349355
0.348272
0.347242
0.373825
0.37155
0.369391
0.367343
0.3654
0.363554
0.3618
0.360131
0.358544
0.357033
0.355593
0.354221
0.352913
0.351666
0.350476
0.349342
0.348259
0.347226
0.373825
0.371552
0.369393
0.367348
0.365403
0.363561
0.361805
0.36014
0.358551
0.357042
0.3556
0.35423
0.35292
0.351675
0.350484
0.349351
0.348266
0.347234
0.373826
0.371552
0.369398
0.367353
0.365413
0.363566
0.361814
0.360142
0.358553
0.357036
0.355594
0.354219
0.352911
0.351663
0.350476
0.349344
0.348265
0.347236
0.373823
0.371559
0.369402
0.36736
0.365396
0.363531
0.361733
0.360022
0.358381
0.356822
0.355342
0.353944
0.352625
0.351382
0.350204
0.349098
0.348034
0.347046
0.373805
0.371594
0.36939
0.367289
0.365116
0.363071
0.360971
0.35901
0.357071
0.355275
0.3536
0.352073
0.350701
0.349449
0.348318
0.34727
0.346265
0.345422
0.373789
0.371693
0.369108
0.366539
0.363338
0.360488
0.357107
0.354242
0.351028
0.34836
0.34584
0.343606
0.341949
0.340376
0.338932
0.33622
0.334704
0.333204
0.373993
0.371403
0.367542
0.363018
0.356144
0.350101
0.342302
0.33604
0.327937
0.322436
0.316652
0.311355
0.308193
0.303817
0.298885
0.297446
0.299648
0.297244
0.374653
0.369868
0.362784
0.348394
0.326378
0.304415
0.284638
0.267768
0.249414
0.239626
0.228132
0.223172
0.215552
0.215299
0.220886
0.233392
0.236742
0.247077
0.374491
0.369808
0.351215
0.273233
0.192183
0.132825
0.0906328
0.066843
0.0533082
0.0500078
0.0491112
0.0496227
0.0562764
0.0797594
0.120709
0.167876
0.199786
0.212497
0.378466
0.376248
0.333095
0.23526
0.145782
0.0847402
0.0474399
0.0282708
0.023164
0.023057
0.0230072
0.0231803
0.0226841
0.0358057
0.0701116
0.119214
0.160519
0.207732
0.409564
0.38947
0.263609
0.244713
0.193629
0.205334
0.179766
0.172474
0.18095
0.186836
0.201202
0.221527
0.233122
0.292836
0.356396
0.430364
0.480142
0.534695
0.959112
1.28261
1.47736
1.5786
1.60543
1.59798
1.55813
1.51542
1.46201
1.41449
1.37119
1.3316
1.29419
1.26271
1.23747
1.21842
1.20353
1.19258
1.25337e-08
3.10975e-07
1.6042e-06
6.38998e-06
2.12425e-05
6.21591e-05
0.000169713
0.000376569
0.000668225
0.00101798
0.00137611
0.0016914
0.00200465
0.002239
0.00233811
0.00230036
0.00222305
0.00205412
0.00179439
0.00151817
0.00128538
0.00106981
0.000860609
0.000661837
0.000477451
0.000312219
0.000181389
9.33823e-05
4.38253e-05
2.01658e-05
9.66326e-06
4.9878e-06
2.93529e-06
2.30433e-06
3.25501e-06
8.27764e-06
2.5126e-05
6.92376e-05
0.000291385
0.000627436
0.00102135
0.00119525
0.00113422
0.000978294
0.000844783
0.000880022
0.00101106
0.00135703
0.00192071
0.00413651
0.00973642
0.027756
0.0595765
0.091188
0.106042
0.0887556
0.117348
0.123396
0.121119
0.146511
0.134298
0.139624
0.158895
0.156775
0.16356
0.177766
0.18452
0.193792
0.20156
0.209873
0.217494
0.225362
0.232768
0.240306
0.247528
0.254798
0.261836
0.268866
0.275724
0.282542
0.289223
0.295836
0.30234
0.308758
0.315085
0.32131
0.327455
0.33348
0.339422
0.345241
0.350961
0.356572
0.362071
0.367448
0.372698
0.377807
0.382774
0.387591
0.392275
0.396862
0.40137
0.405739
0.410026
0.414202
0.418288
0.422258
0.426125
0.429864
0.433491
0.43698
0.44035
0.443573
0.44667
0.449611
0.452419
0.455064
0.457569
0.459905
0.462091
0.464103
0.465956
0.467636
0.469156
0.470499
0.471673
0.472662
0.473467
0.474073
0.474463
0.474614
0.474525
0.474651
0.474316
0.474036
0.47368
0.473098
0.472263
0.471345
0.470227
0.468936
0.467446
0.465785
0.464
0.46207
0.46001
0.457829
0.4555
0.453095
0.450506
0.447879
0.445054
0.44222
0.439173
0.43615
0.432905
0.429723
0.426319
0.423009
0.419488
0.416074
0.412479
0.408952
0.405363
0.401775
0.398179
0.394581
0.390994
0.387419
0.383875
0.380359
0.376889
0.373457
0.370063
0.366685
0.36329
0.359786
0.356057
0.351777
0.346353
0.330458
5.37314e-08
1.5108e-06
9.77858e-06
4.08703e-05
0.000145727
0.000485033
0.00119588
0.00243386
0.00409324
0.00598989
0.00789667
0.00963661
0.0109644
0.0118771
0.0125072
0.012573
0.0124774
0.0123626
0.0120171
0.011452
0.0106036
0.00950767
0.00817688
0.00667978
0.0051231
0.00354145
0.00232035
0.00144106
0.0008566
0.00049056
0.000273667
0.000152541
8.98409e-05
6.07888e-05
6.0963e-05
0.000103333
0.000287834
0.000592918
0.00278916
0.00581718
0.00923455
0.0113842
0.0120915
0.012124
0.0127692
0.0151353
0.0195703
0.0259524
0.0382779
0.0602808
0.0857839
0.110608
0.132664
0.151378
0.167299
0.18179
0.198242
0.212827
0.228195
0.244906
0.261058
0.280316
0.30006
0.317894
0.337355
0.356596
0.375149
0.393729
0.411899
0.430033
0.447867
0.465627
0.483117
0.500589
0.517886
0.535124
0.552228
0.569259
0.586173
0.603005
0.619723
0.636346
0.652851
0.669248
0.685524
0.701674
0.717694
0.733566
0.749289
0.764836
0.780217
0.795424
0.810451
0.825289
0.839916
0.854322
0.868475
0.882352
0.895913
0.90912
0.922004
0.934739
0.947277
0.959629
0.971783
0.98373
0.99545
1.00694
1.01817
1.02914
1.03983
1.05025
1.06036
1.07017
1.07966
1.08881
1.09763
1.1061
1.11419
1.12192
1.12926
1.13622
1.14279
1.14895
1.15471
1.16004
1.16495
1.16942
1.17345
1.17704
1.18018
1.18291
1.18515
1.18691
1.18823
1.18883
1.18987
1.18995
1.19025
1.19032
1.19
1.18904
1.18773
1.18601
1.18391
1.18143
1.17856
1.17531
1.17171
1.16772
1.1634
1.15868
1.15366
1.14825
1.14256
1.13652
1.13023
1.12363
1.11682
1.10973
1.10248
1.095
1.08736
1.07958
1.07165
1.0636
1.05544
1.04719
1.03888
1.03051
1.02213
1.01372
1.0053
0.996836
0.988271
0.97949
0.97029
0.960331
0.947754
0.920562
1.13334e-07
3.37369e-06
2.57479e-05
0.000119475
0.000388632
0.0012871
0.00284927
0.00509791
0.00754542
0.00990414
0.0119888
0.0137153
0.0150466
0.0159946
0.0166089
0.0168106
0.0167872
0.0167167
0.0164508
0.0160425
0.015482
0.0147747
0.0138925
0.0128091
0.0115038
0.00999638
0.0081527
0.00617588
0.00433276
0.00275072
0.00171912
0.00107571
0.000696471
0.000484812
0.000384768
0.000377165
0.00121961
0.00310788
0.0103237
0.0193832
0.0267166
0.0317046
0.0352576
0.0397041
0.0493204
0.0674268
0.0874774
0.107577
0.129415
0.150313
0.170364
0.190625
0.211157
0.232554
0.254675
0.278748
0.304937
0.332411
0.360546
0.389192
0.416765
0.44459
0.471712
0.49821
0.524413
0.549935
0.574921
0.599439
0.623579
0.647382
0.670916
0.694242
0.717367
0.740349
0.763177
0.785882
0.808455
0.830912
0.853243
0.875456
0.89754
0.919494
0.941309
0.962982
0.984503
1.00586
1.02706
1.04808
1.0689
1.08953
1.10994
1.13014
1.15013
1.16989
1.18941
1.20869
1.22772
1.2465
1.26502
1.2833
1.30134
1.31915
1.33669
1.35397
1.37096
1.38765
1.40402
1.42005
1.43572
1.45102
1.46594
1.48045
1.49454
1.5082
1.52141
1.53416
1.54642
1.55819
1.56945
1.58019
1.5904
1.60008
1.60921
1.61778
1.62579
1.63323
1.64008
1.64634
1.65202
1.65709
1.66157
1.66546
1.66874
1.67142
1.67352
1.67489
1.67591
1.67624
1.67616
1.67557
1.67444
1.6727
1.67041
1.66757
1.66417
1.66024
1.65577
1.65075
1.64524
1.63918
1.63266
1.6256
1.6181
1.61008
1.60165
1.59274
1.58348
1.57379
1.5638
1.55344
1.54284
1.53195
1.52084
1.50952
1.49802
1.48636
1.47456
1.46265
1.45066
1.43862
1.42656
1.4145
1.40246
1.39044
1.37839
1.36625
1.35384
1.34091
1.32556
1.30001
4.44983e-07
1.31166e-05
0.00010358
0.000475979
0.001406
0.0035602
0.00676647
0.0101338
0.0132586
0.0159347
0.0180577
0.019631
0.0206721
0.0212625
0.021449
0.0213946
0.0211747
0.0207706
0.0202395
0.0196321
0.0189526
0.0182072
0.0173796
0.0164583
0.0154044
0.0141925
0.0127616
0.011072
0.00919387
0.00726022
0.0053732
0.00372565
0.00259432
0.00181208
0.00165752
0.00228222
0.00644512
0.018042
0.0345227
0.0484368
0.0596483
0.0703554
0.0834323
0.100039
0.118262
0.135259
0.152255
0.169788
0.190182
0.210964
0.234228
0.259213
0.286455
0.315496
0.345985
0.377786
0.410352
0.443305
0.476254
0.508936
0.541123
0.572853
0.603941
0.634396
0.664365
0.693769
0.722717
0.751239
0.779452
0.807394
0.835124
0.862683
0.890101
0.917405
0.944603
0.971706
0.998713
1.02562
1.05243
1.07913
1.10571
1.13216
1.15846
1.18462
1.21062
1.23644
1.26207
1.28752
1.31275
1.33775
1.36253
1.38707
1.41136
1.43541
1.45921
1.48274
1.50601
1.529
1.55172
1.57415
1.5963
1.61813
1.63964
1.6608
1.68161
1.70203
1.72205
1.74164
1.76079
1.77947
1.79767
1.81536
1.83253
1.84915
1.86521
1.8807
1.89558
1.90985
1.92348
1.93646
1.94878
1.96044
1.97142
1.98171
1.9913
2.00018
2.00834
2.01579
2.0225
2.02849
2.03374
2.03826
2.04205
2.04511
2.04744
2.04894
2.04971
2.04984
2.04928
2.04806
2.04615
2.04354
2.04026
2.03629
2.03165
2.02634
2.02037
2.01375
2.00651
1.99863
1.99017
1.98108
1.97144
1.96121
1.95047
1.93917
1.92741
1.91518
1.90255
1.88952
1.87617
1.86249
1.84855
1.83437
1.81998
1.80541
1.79068
1.77583
1.7609
1.74593
1.73096
1.71601
1.70114
1.68635
1.67164
1.65699
1.64227
1.6273
1.61046
1.5866
1.55943e-06
4.6837e-05
0.000355048
0.0013983
0.0039947
0.00854709
0.0132795
0.0174937
0.020864
0.0233102
0.0249082
0.0258032
0.0261455
0.0260925
0.0258284
0.0252983
0.0246392
0.0239109
0.0231336
0.0223371
0.0215235
0.0206972
0.0198429
0.0189514
0.017993
0.0169437
0.0157698
0.0144278
0.0128713
0.0111457
0.0093315
0.00772253
0.00593818
0.0050781
0.00661469
0.0144823
0.0337725
0.0565674
0.0768872
0.0936732
0.107967
0.121572
0.135309
0.14919
0.163431
0.178853
0.197497
0.218532
0.242471
0.26862
0.297353
0.327961
0.360259
0.39371
0.428027
0.463012
0.498363
0.53377
0.569052
0.604055
0.638702
0.672899
0.706644
0.739918
0.772796
0.805279
0.837429
0.869297
0.900949
0.932433
0.963794
0.995067
1.02628
1.05744
1.08856
1.11965
1.15069
1.18167
1.21259
1.24343
1.27417
1.3048
1.33529
1.36564
1.39583
1.42584
1.45566
1.48527
1.51465
1.5438
1.57269
1.60133
1.62971
1.65782
1.68565
1.71318
1.74042
1.76734
1.79394
1.8202
1.84611
1.87165
1.89679
1.92153
1.94583
1.96968
1.99305
2.01591
2.03825
2.06003
2.08123
2.10183
2.12181
2.14114
2.15981
2.17778
2.19505
2.21157
2.22735
2.24236
2.25658
2.27
2.28263
2.29443
2.3054
2.31554
2.32483
2.33326
2.34084
2.34756
2.35341
2.3584
2.36253
2.3658
2.3682
2.36962
2.37017
2.36995
2.36893
2.36709
2.36444
2.36098
2.35671
2.35166
2.34582
2.33921
2.33184
2.32371
2.31486
2.30529
2.29502
2.28407
2.27246
2.2602
2.24733
2.23386
2.21984
2.2053
2.1903
2.17485
2.15902
2.14284
2.12635
2.1096
2.09262
2.07543
2.05807
2.04059
2.02303
2.00543
1.98785
1.97034
1.95293
1.93568
1.91861
1.90172
1.88496
1.86818
1.85005
1.82676
4.87297e-06
0.000145063
0.00105894
0.00392662
0.010031
0.0167113
0.0222089
0.0261352
0.0285917
0.0299084
0.0304202
0.0303711
0.0300226
0.0293611
0.0285386
0.027642
0.0267066
0.0257693
0.0248463
0.0239583
0.0230988
0.0222658
0.0214409
0.0206122
0.0197492
0.018823
0.017807
0.0166666
0.0153443
0.013797
0.0119358
0.010193
0.0103461
0.0140946
0.0269691
0.0518212
0.0797134
0.104089
0.122878
0.136501
0.147161
0.157297
0.168284
0.181481
0.197997
0.217643
0.240792
0.266785
0.295346
0.325933
0.358233
0.391822
0.426439
0.46173
0.497542
0.533756
0.570211
0.606771
0.643338
0.679815
0.716136
0.752231
0.788088
0.823696
0.859075
0.894243
0.929241
0.96411
0.998896
1.03364
1.06838
1.10313
1.13792
1.17276
1.20764
1.24256
1.2775
1.31244
1.34736
1.38224
1.41705
1.45176
1.48636
1.52082
1.55512
1.58924
1.62316
1.65686
1.69033
1.72353
1.75646
1.78912
1.82149
1.85357
1.88533
1.91677
1.94787
1.97861
2.00899
2.03897
2.06854
2.09768
2.12636
2.15458
2.1823
2.20949
2.23613
2.26218
2.28763
2.31244
2.33658
2.36003
2.38276
2.40475
2.42596
2.44637
2.46596
2.4847
2.50257
2.51954
2.53561
2.55076
2.56497
2.57823
2.59053
2.60186
2.61221
2.62158
2.62996
2.63734
2.64374
2.64914
2.65354
2.65695
2.65937
2.66064
2.66098
2.6604
2.65887
2.65641
2.65301
2.64869
2.64347
2.63734
2.63033
2.62244
2.6137
2.60411
2.5937
2.58248
2.57048
2.55772
2.54423
2.53001
2.51511
2.49955
2.48338
2.46664
2.44937
2.43162
2.41344
2.39487
2.37597
2.35677
2.33731
2.31764
2.29779
2.2778
2.25773
2.23764
2.21758
2.19761
2.17779
2.15819
2.13884
2.11979
2.10101
2.08241
2.06284
2.03921
1.54562e-05
0.000441037
0.00299213
0.0101378
0.0194526
0.0264426
0.0307775
0.0331224
0.0341487
0.0343329
0.0340372
0.0333268
0.0323437
0.0312311
0.0300552
0.0288803
0.0277405
0.0266698
0.0256729
0.0247556
0.023903
0.0231071
0.0223438
0.021593
0.020818
0.0199632
0.0189877
0.0178917
0.0168056
0.0158748
0.0156062
0.0175972
0.0259764
0.0446772
0.0722131
0.100445
0.125166
0.143203
0.154821
0.163074
0.170975
0.181077
0.194738
0.212117
0.233281
0.257787
0.285215
0.314867
0.346266
0.378939
0.412632
0.447135
0.482308
0.518031
0.554242
0.590881
0.627872
0.665141
0.702619
0.740229
0.777903
0.815592
0.853266
0.890907
0.928521
0.966123
1.00373
1.04139
1.07912
1.11696
1.15493
1.19306
1.23135
1.26979
1.30839
1.34711
1.38594
1.42484
1.46377
1.50271
1.5416
1.58043
1.61915
1.65774
1.69617
1.73441
1.77244
1.81024
1.84778
1.88504
1.922
1.95866
1.99501
2.03103
2.06672
2.10204
2.13697
2.17151
2.20563
2.23932
2.27253
2.30527
2.33749
2.36919
2.40032
2.43085
2.46077
2.49003
2.5186
2.54645
2.57355
2.59987
2.62537
2.65002
2.6738
2.69667
2.7186
2.73957
2.75954
2.7785
2.79642
2.81329
2.82908
2.8438
2.85742
2.86993
2.88133
2.89161
2.90076
2.90879
2.91568
2.92146
2.9261
2.92963
2.932
2.93311
2.93322
2.93224
2.93019
2.92709
2.92293
2.91775
2.91155
2.90434
2.89615
2.88699
2.87688
2.86583
2.85387
2.84101
2.8273
2.81275
2.7974
2.78125
2.76436
2.74674
2.72845
2.70954
2.69006
2.67005
2.64957
2.62867
2.6074
2.5858
2.56393
2.54182
2.51951
2.49707
2.47454
2.45199
2.42949
2.4071
2.3849
2.36295
2.34133
2.32009
2.29923
2.27869
2.25745
2.23284
4.86884e-05
0.00128566
0.00752773
0.0201843
0.029288
0.0344594
0.0370703
0.0381332
0.0381913
0.0376872
0.0366456
0.0353275
0.0338591
0.0323471
0.0308593
0.0294562
0.0281658
0.0270117
0.0259838
0.0250771
0.0242648
0.023531
0.0228403
0.0221653
0.0214358
0.0206283
0.0197595
0.0190728
0.0190374
0.0209187
0.0268656
0.040633
0.0636295
0.0903834
0.116406
0.138698
0.154865
0.165095
0.172139
0.179717
0.19016
0.204493
0.222864
0.24495
0.2703
0.298256
0.328107
0.359298
0.391518
0.424566
0.458337
0.492757
0.527799
0.563435
0.599651
0.636427
0.673726
0.711495
0.749673
0.788197
0.827013
0.866074
0.905345
0.944814
0.98447
1.02432
1.06439
1.10469
1.14525
1.1861
1.22725
1.26871
1.31048
1.35254
1.39489
1.43747
1.48024
1.52317
1.5662
1.60927
1.65233
1.69534
1.73826
1.78105
1.82366
1.86608
1.90828
1.95021
1.99187
2.0332
2.07421
2.11489
2.15522
2.1952
2.2348
2.274
2.31278
2.35112
2.38899
2.42638
2.46325
2.49959
2.53537
2.57055
2.60511
2.63901
2.67222
2.7047
2.73642
2.76735
2.79743
2.82664
2.85494
2.8823
2.90867
2.93402
2.95833
2.98155
3.00365
3.02461
3.0444
3.063
3.08039
3.09656
3.1115
3.12518
3.13761
3.14878
3.15868
3.16732
3.17469
3.18079
3.18564
3.18923
3.19151
3.19246
3.19227
3.19086
3.18825
3.18447
3.17953
3.17345
3.16624
3.15794
3.14854
3.13809
3.12659
3.11407
3.10055
3.08606
3.07063
3.05429
3.03707
3.01899
3.00011
2.98044
2.96005
2.93899
2.91731
2.89506
2.87231
2.84909
2.82547
2.8015
2.77723
2.7527
2.72796
2.70307
2.6781
2.65311
2.62817
2.60336
2.57876
2.55445
2.5305
2.507
2.48396
2.46135
2.43822
2.41212
0.000138719
0.00334529
0.0163509
0.0297533
0.0371168
0.0407259
0.0421931
0.0423423
0.0416966
0.0403973
0.0387281
0.0368652
0.0349371
0.0330593
0.0313022
0.0297236
0.0283401
0.0271638
0.0261721
0.0253486
0.0246602
0.024097
0.0236476
0.0233327
0.0232149
0.0234608
0.024437
0.0266672
0.0313078
0.0407653
0.0579418
0.0799371
0.103502
0.126063
0.145102
0.159252
0.169006
0.176668
0.185078
0.196408
0.211574
0.230634
0.253201
0.278676
0.3064
0.335733
0.366195
0.397486
0.429486
0.462135
0.495433
0.52939
0.564031
0.599375
0.63544
0.672215
0.709682
0.747801
0.786527
0.825813
0.86561
0.905881
0.946597
0.987737
1.0293
1.07128
1.1137
1.15658
1.19992
1.24375
1.28808
1.3329
1.37821
1.42397
1.47014
1.51669
1.56353
1.61061
1.65786
1.70519
1.75254
1.79985
1.84707
1.89414
1.94103
1.9877
2.03411
2.08023
2.12603
2.17148
2.21656
2.26126
2.30558
2.3495
2.39301
2.43608
2.47868
2.5208
2.56241
2.60348
2.64399
2.68391
2.72322
2.76188
2.79986
2.83711
2.87361
2.90931
2.94418
2.97817
3.01124
3.04334
3.07445
3.1045
3.13347
3.16132
3.18799
3.21346
3.23769
3.26065
3.2823
3.30262
3.3216
3.3392
3.35543
3.37025
3.38368
3.3957
3.4063
3.41549
3.42328
3.42966
3.43465
3.43824
3.44038
3.44112
3.44056
3.43865
3.43542
3.4309
3.42512
3.41809
3.40983
3.40038
3.38974
3.37796
3.36504
3.35102
3.33592
3.31977
3.30261
3.28447
3.26537
3.24537
3.22448
3.20277
3.18028
3.15707
3.13321
3.10874
3.08372
3.05821
3.03226
3.00593
2.97927
2.95234
2.92517
2.89785
2.87043
2.843
2.81562
2.78838
2.76136
2.73466
2.70835
2.68252
2.65721
2.63239
2.60719
2.57923
0.000337307
0.00736249
0.0261161
0.0382541
0.0439759
0.0464177
0.046972
0.0463614
0.0449238
0.042959
0.040686
0.038297
0.0359387
0.0337405
0.0317763
0.0300996
0.0287169
0.0276273
0.0267908
0.0261763
0.0257598
0.0255387
0.0255063
0.0258068
0.0267466
0.0290015
0.0337472
0.0422917
0.0554539
0.0726694
0.0918464
0.111803
0.130586
0.146679
0.159444
0.169385
0.178201
0.187988
0.200449
0.216378
0.235804
0.258331
0.28339
0.310381
0.338777
0.368151
0.398254
0.428963
0.460271
0.492204
0.524816
0.558158
0.592292
0.627258
0.663078
0.69976
0.737295
0.775662
0.81483
0.854766
0.895435
0.936808
0.978861
1.02159
1.06498
1.10904
1.15379
1.19923
1.24539
1.29226
1.33984
1.38812
1.43708
1.48667
1.53683
1.5875
1.63857
1.68997
1.74159
1.79334
1.84513
1.89686
1.94849
1.99994
2.05118
2.10215
2.15284
2.20319
2.25316
2.30272
2.35186
2.40057
2.44884
2.49668
2.54405
2.59093
2.6373
2.68313
2.7284
2.77309
2.81716
2.8606
2.90336
2.94542
2.98674
3.02728
3.067
3.10586
3.14381
3.18081
3.21681
3.25176
3.28561
3.31833
3.34985
3.38013
3.40913
3.43681
3.46312
3.48803
3.51149
3.53349
3.55398
3.57297
3.59042
3.60632
3.62067
3.63346
3.64468
3.65435
3.66247
3.66903
3.67406
3.67757
3.67949
3.67992
3.67889
3.67639
3.67246
3.66712
3.66042
3.65236
3.64299
3.63232
3.62038
3.60721
3.59283
3.57727
3.56056
3.54273
3.52381
3.50385
3.48286
3.46091
3.43802
3.41425
3.38966
3.36432
3.33829
3.31161
3.28435
3.25656
3.2283
3.19963
3.17061
3.14127
3.1117
3.08195
3.0521
3.02223
2.99241
2.96274
2.93329
2.90416
2.87544
2.84722
2.81955
2.79244
2.76506
2.7353
0.000707111
0.0139407
0.0352915
0.045715
0.0502822
0.0519018
0.0517481
0.0504302
0.0483267
0.0457381
0.0429066
0.040057
0.0373608
0.0349592
0.0329274
0.0313104
0.0301118
0.0293028
0.0288818
0.0288169
0.0291615
0.0300392
0.0316501
0.0344024
0.0389509
0.0461688
0.056171
0.0688782
0.0838103
0.10015
0.116627
0.1322
0.146028
0.157841
0.168139
0.178137
0.189327
0.20287
0.219364
0.238831
0.260936
0.285193
0.311125
0.338287
0.36635
0.395073
0.424363
0.454197
0.484632
0.51573
0.547582
0.580268
0.613854
0.648391
0.683917
0.720451
0.757998
0.796554
0.836106
0.876635
0.918121
0.960553
1.00392
1.04821
1.09344
1.13963
1.18677
1.23488
1.28396
1.33402
1.38503
1.43697
1.48978
1.54341
1.59777
1.65277
1.70828
1.76419
1.82037
1.8767
1.93307
1.98936
2.04549
2.1014
2.15704
2.21237
2.26734
2.32191
2.37604
2.42968
2.48282
2.53546
2.58761
2.63926
2.69037
2.74095
2.79095
2.84036
2.88914
2.93729
2.98477
3.03156
3.07762
3.12293
3.16744
3.21111
3.25389
3.29575
3.33664
3.37651
3.4153
3.45296
3.48943
3.52467
3.55862
3.59122
3.62243
3.6522
3.68048
3.70722
3.73238
3.75593
3.77783
3.79807
3.81663
3.83348
3.84863
3.86206
3.87378
3.88379
3.8921
3.89872
3.90366
3.90693
3.90853
3.90852
3.90689
3.90368
3.89892
3.89266
3.88492
3.87574
3.86516
3.85319
3.83988
3.82526
3.80935
3.7922
3.77384
3.75429
3.7336
3.71179
3.6889
3.66499
3.64009
3.61428
3.58761
3.56016
3.53198
3.50312
3.47366
3.44363
3.4131
3.38213
3.35076
3.31907
3.28711
3.25497
3.22272
3.19044
3.15821
3.12611
3.09424
3.06268
3.03153
3.00089
2.97081
2.94133
2.91168
2.87994
0.00124888
0.0218665
0.043307
0.0528452
0.0566909
0.0576627
0.0568949
0.0549587
0.0522638
0.049156
0.0459151
0.0427937
0.0399832
0.0376306
0.0358112
0.034545
0.0338835
0.0337345
0.0341129
0.0351466
0.0370356
0.0400361
0.0444375
0.0505487
0.0584849
0.0681144
0.0794235
0.0920993
0.105584
0.119211
0.132331
0.144562
0.155822
0.166566
0.177628
0.189961
0.204328
0.221112
0.240328
0.261718
0.284924
0.309562
0.33531
0.361886
0.389117
0.416888
0.445195
0.474064
0.503585
0.533847
0.564954
0.596988
0.630032
0.664145
0.699377
0.735761
0.773319
0.812066
0.852004
0.89314
0.935473
0.97901
1.02375
1.06972
1.11691
1.16536
1.21508
1.26608
1.31835
1.37187
1.42662
1.48254
1.53954
1.59754
1.65641
1.71603
1.77624
1.83689
1.89783
1.9589
2.01996
2.08088
2.14158
2.20198
2.26201
2.32165
2.38084
2.43955
2.49773
2.55533
2.61233
2.66875
2.72459
2.77985
2.83451
2.88856
2.94196
2.99469
3.04674
3.09808
3.14869
3.19856
3.24765
3.29593
3.34335
3.38987
3.43545
3.48005
3.52361
3.5661
3.60743
3.64756
3.68642
3.72395
3.7601
3.7948
3.828
3.85965
3.88968
3.91806
3.94471
3.96962
3.99274
4.01404
4.0335
4.05111
4.06686
4.08075
4.09276
4.10292
4.11123
4.11771
4.12237
4.12523
4.12632
4.12569
4.12331
4.11921
4.11347
4.10614
4.09724
4.08681
4.07489
4.06152
4.04674
4.03058
4.01308
3.99429
3.97422
3.95293
3.93044
3.90678
3.88198
3.85611
3.82922
3.8014
3.77269
3.74317
3.71289
3.68192
3.65031
3.6181
3.58537
3.55216
3.51852
3.48452
3.45025
3.41578
3.3812
3.34657
3.31198
3.27752
3.24326
3.2093
3.17573
3.14266
3.11016
3.07829
3.04633
3.01255
0.00191474
0.0292107
0.0508813
0.0600009
0.063384
0.0639196
0.0626239
0.0601533
0.0570015
0.0535871
0.0502317
0.0471929
0.0446617
0.0427822
0.0416884
0.0413314
0.0415903
0.0425985
0.0443844
0.0470725
0.0507821
0.0556365
0.0617294
0.0691108
0.0777248
0.0874406
0.0980466
0.109254
0.120728
0.132178
0.143387
0.15442
0.165601
0.177471
0.190588
0.205412
0.222175
0.240875
0.261345
0.283324
0.30655
0.330766
0.355785
0.381446
0.40768
0.434445
0.461781
0.489743
0.51844
0.547956
0.578404
0.609872
0.642451
0.676212
0.711223
0.747535
0.785186
0.824207
0.864626
0.906474
0.949773
0.99456
1.04086
1.08872
1.13816
1.18921
1.2419
1.29623
1.35217
1.4097
1.46874
1.52918
1.5909
1.65375
1.71757
1.78218
1.84738
1.91298
1.9788
2.04466
2.11043
2.17596
2.24115
2.30594
2.37025
2.43405
2.49727
2.55989
2.62187
2.68316
2.74375
2.80365
2.86287
2.92142
2.97928
3.03642
3.09284
3.1485
3.20341
3.25753
3.31086
3.36338
3.41506
3.46588
3.51579
3.56475
3.61271
3.65964
3.70548
3.75018
3.79368
3.8359
3.87677
3.91624
3.95423
3.99069
4.02555
4.05875
4.09022
4.11991
4.14776
4.17372
4.19776
4.21983
4.23992
4.25801
4.27408
4.28814
4.30018
4.31022
4.31827
4.32435
4.32848
4.3307
4.33104
4.32958
4.32619
4.32101
4.3141
4.3055
4.29527
4.28343
4.27004
4.25514
4.23877
4.22097
4.2018
4.18129
4.15948
4.13641
4.11211
4.0866
4.05991
4.03211
4.00328
3.97349
3.94281
3.9113
3.87901
3.846
3.81233
3.77806
3.74322
3.70787
3.67205
3.63586
3.59938
3.5627
3.52589
3.48902
3.45217
3.41543
3.37887
3.34258
3.30665
3.27121
3.23632
3.20209
3.16783
3.13205
0.00282889
0.0354215
0.0584206
0.0675167
0.0705521
0.0707157
0.068908
0.0659742
0.0625306
0.0590905
0.0560187
0.0535154
0.0516883
0.050756
0.0505506
0.0511199
0.0524459
0.0545464
0.0574722
0.0612513
0.0659223
0.0715218
0.0780572
0.0855012
0.0937826
0.102793
0.112393
0.122454
0.132828
0.14346
0.154407
0.165895
0.178216
0.19169
0.206559
0.222964
0.240905
0.260285
0.280949
0.302707
0.325403
0.348878
0.373041
0.397805
0.423164
0.449111
0.475705
0.503007
0.531122
0.560139
0.590165
0.621278
0.653584
0.687169
0.722115
0.758495
0.796374
0.835821
0.876895
0.919666
0.964199
1.01057
1.05883
1.10906
1.1613
1.21561
1.27199
1.33044
1.39093
1.45335
1.51756
1.58337
1.65057
1.71893
1.78823
1.85822
1.92867
1.99933
2.06998
2.14047
2.2107
2.28055
2.34995
2.41884
2.48713
2.55475
2.62159
2.68767
2.75301
2.81753
2.88123
2.94411
3.00619
3.06748
3.12797
3.18764
3.24648
3.30448
3.36162
3.41791
3.47333
3.52788
3.58154
3.63429
3.68608
3.73686
3.78661
3.83528
3.88282
3.92918
3.97428
4.01806
4.06043
4.10132
4.14066
4.17839
4.21443
4.24871
4.28118
4.31174
4.34036
4.36696
4.3915
4.41395
4.43427
4.45245
4.46848
4.48235
4.49406
4.50363
4.51107
4.51642
4.51971
4.52097
4.52031
4.51768
4.51301
4.5065
4.49818
4.4881
4.47632
4.46289
4.44785
4.43127
4.41318
4.39365
4.37271
4.35041
4.32681
4.30194
4.27583
4.24851
4.21995
4.19028
4.15959
4.12794
4.09538
4.06199
4.0278
3.99288
3.95729
3.92108
3.8843
3.84694
3.8091
3.77088
3.73235
3.69361
3.65473
3.61578
3.57683
3.53796
3.49922
3.46072
3.42255
3.38484
3.34766
3.31116
3.27467
3.237
0.00381063
0.0419906
0.0659303
0.0751533
0.0780107
0.0778429
0.0754229
0.0719335
0.0683432
0.06525
0.0628918
0.061307
0.0605403
0.0603978
0.0610463
0.0624163
0.0645221
0.067339
0.0708764
0.0751395
0.0801521
0.085912
0.0924251
0.0996754
0.107629
0.116236
0.125429
0.135166
0.145428
0.156279
0.167797
0.180152
0.193493
0.207973
0.223666
0.240607
0.258761
0.278054
0.298396
0.319673
0.34181
0.364715
0.388357
0.412691
0.437725
0.463461
0.489919
0.517145
0.545223
0.57422
0.604226
0.635353
0.667706
0.701402
0.736546
0.773258
0.811631
0.851789
0.893846
0.937938
0.984186
1.03273
1.08368
1.13712
1.19314
1.25176
1.31299
1.37678
1.44305
1.51157
1.58211
1.65437
1.72803
1.80272
1.87813
1.95387
2.02966
2.10522
2.18032
2.25479
2.32876
2.40221
2.47514
2.54749
2.61913
2.68992
2.75974
2.8287
2.89673
2.96383
3.02991
3.09502
3.15918
3.22241
3.2847
3.34606
3.40646
3.46593
3.52445
3.58203
3.63868
3.6944
3.74919
3.80302
3.85586
3.90767
3.9584
4.00803
4.05651
4.10378
4.14978
4.19441
4.23761
4.27927
4.31932
4.35769
4.3943
4.42909
4.46197
4.49286
4.52168
4.54839
4.57291
4.59522
4.61527
4.63306
4.64855
4.66176
4.67268
4.68133
4.68772
4.6919
4.69393
4.69387
4.69185
4.68758
4.68132
4.67314
4.66309
4.65124
4.63765
4.62236
4.60546
4.58699
4.56701
4.54557
4.52274
4.49855
4.47306
4.44632
4.41838
4.38924
4.35891
4.3275
4.29507
4.26169
4.22741
4.19227
4.15635
4.11968
4.08235
4.04439
4.00586
3.9667
3.92705
3.88701
3.84667
3.80609
3.76536
3.72453
3.68368
3.64288
3.60217
3.56163
3.52141
3.4816
3.4423
3.40367
3.36509
3.32572
0.00480726
0.0483094
0.0734183
0.082868
0.0855826
0.084951
0.0819061
0.0782588
0.0750399
0.0726585
0.0711407
0.0705102
0.0704643
0.0710821
0.0723415
0.0742897
0.0769174
0.0801864
0.0841233
0.0887081
0.0939829
0.0999372
0.106604
0.113951
0.121986
0.130669
0.139987
0.149924
0.160483
0.171708
0.183651
0.196428
0.210104
0.224801
0.240556
0.257443
0.275431
0.294514
0.314661
0.335839
0.358031
0.381182
0.405296
0.430309
0.456282
0.483049
0.510549
0.538825
0.567937
0.597847
0.628645
0.660471
0.69348
0.727797
0.763615
0.801096
0.840398
0.881698
0.925245
0.971263
1.01996
1.07161
1.1263
1.18417
1.24525
1.30956
1.37702
1.44755
1.5209
1.59683
1.67494
1.75483
1.83596
1.91781
1.99975
2.08108
2.16185
2.2418
2.32079
2.39871
2.47597
2.55248
2.62823
2.70311
2.77716
2.85015
2.92212
2.99298
3.0627
3.13121
3.1985
3.26462
3.3296
3.39348
3.45629
3.51803
3.57872
3.63836
3.69699
3.7546
3.81124
3.86693
3.92166
3.97542
4.02818
4.07991
4.13056
4.18011
4.22852
4.27573
4.32168
4.36626
4.40938
4.45095
4.49087
4.52908
4.56549
4.60001
4.63255
4.66302
4.69134
4.71744
4.74125
4.76273
4.78186
4.7986
4.81293
4.82487
4.8344
4.84153
4.8463
4.84878
4.84903
4.8473
4.84321
4.83694
4.82866
4.81841
4.80627
4.79231
4.77659
4.75918
4.74016
4.71959
4.69754
4.67406
4.64921
4.62305
4.59562
4.56698
4.53717
4.50625
4.47427
4.44125
4.40723
4.37227
4.33641