/*--------------------------------*- C++ -*----------------------------------*\
  =========                 |
  \\      /  F ield         | OpenFOAM: The Open Source CFD Toolbox
   \\    /   O peration     | Website:  https://openfoam.org
    \\  /    A nd           | Version:  13
     \\/     M anipulation  |
\*---------------------------------------------------------------------------*/
FoamFile
{
    format      ascii;
    class       volScalarField;
    location    "1900";
    object      nut;
}
// * * * * * * * * * * * * * * * * * * * * * * * * * * * * * * * * * * * * * //

dimensions      [0 2 -1 0 0 0 0];

internalField   nonuniform List<scalar> 
12225
(
6.6296e-06
1.35614e-05
1.75364e-05
2.04256e-05
2.23358e-05
2.0276e-05
2.14278e-05
1.85901e-05
1.83411e-05
2.06903e-05
1.5805e-05
2.63895e-05
2.68458e-05
3.21714e-05
2.74967e-05
2.06241e-05
1.88791e-05
1.81777e-05
8.01095e-05
5.80745e-05
3.60497e-05
2.7934e-05
4.04328e-05
3.38273e-05
4.05594e-05
4.25593e-05
3.97677e-05
4.10821e-05
4.32817e-05
4.7536e-05
4.61162e-05
4.81606e-05
4.79823e-05
4.53242e-05
4.51425e-05
4.56837e-05
0.000278207
0.00027262
0.000173342
0.000111974
8.58043e-05
5.90941e-05
5.56917e-05
4.79939e-05
4.07397e-05
3.91962e-05
3.54524e-05
3.14772e-05
2.85728e-05
2.79657e-05
2.78626e-05
2.79468e-05
2.86108e-05
3.10741e-05
0.000559293
0.000585501
0.000439288
0.000315243
0.000239037
0.000162277
0.000109815
7.77375e-05
5.95843e-05
4.80178e-05
3.91498e-05
3.47851e-05
3.29178e-05
2.93097e-05
2.99522e-05
3.06965e-05
3.10994e-05
3.34947e-05
0.000763637
0.000690876
0.000624734
0.000346841
0.000294023
0.000234883
0.000164941
0.000102095
6.89443e-05
5.77665e-05
4.88934e-05
3.24524e-05
3.05769e-05
2.9067e-05
3.06032e-05
3.68452e-05
4.62521e-05
5.71254e-05
0.000834892
0.000770386
0.000727595
0.000579114
0.000376511
0.000301573
0.000256123
0.000135777
9.77408e-05
8.77826e-05
5.97599e-05
5.51615e-05
5.14409e-05
5.10854e-05
5.50178e-05
6.794e-05
8.62566e-05
0.000110453
0.000850638
0.000832948
0.000776294
0.000685691
0.000495474
0.00041322
0.000373661
0.000245002
0.00019389
0.000180196
0.000160909
0.000147383
0.000125251
0.000121864
0.000129167
0.000151295
0.000175398
0.000212273
0.000851653
0.000851598
0.000834439
0.000677207
0.000519062
0.000458869
0.000435729
0.000367927
0.000315881
0.000285068
0.000253238
0.000244985
0.000237843
0.000244968
0.000260362
0.000285771
0.000316357
0.000350238
0.000851296
0.000853293
0.000849531
0.000791873
0.000670533
0.000579506
0.000515763
0.00046971
0.000451175
0.000443831
0.000423689
0.000411465
0.000407559
0.000418027
0.000435763
0.000455202
0.000468999
0.000470082
0.000852403
0.000851242
0.000852787
0.000841018
0.000791524
0.000733716
0.000690816
0.000653105
0.000628324
0.000612771
0.000593291
0.000585388
0.000574186
0.000574599
0.000582039
0.000596328
0.000615799
0.000631211
0.000851847
0.000850475
0.000852998
0.000850247
0.00083945
0.000815358
0.000795087
0.000774341
0.000759925
0.000744743
0.000731883
0.000725996
0.000714969
0.000712577
0.000714144
0.000719688
0.000729436
0.000737838
0.000851859
0.000850236
0.000850319
0.000851917
0.000848664
0.000841196
0.000833219
0.000824348
0.000817198
0.000809442
0.000805167
0.000800659
0.000795228
0.000790648
0.000788025
0.000788666
0.000792517
0.000795987
0.000851715
0.000850493
0.000849852
0.000849728
0.000849046
0.000846894
0.000844541
0.00084154
0.000839235
0.000836581
0.00083477
0.000833093
0.000831927
0.000830934
0.000830397
0.000829819
0.000829873
0.000829505
0.000851586
0.000850647
0.000849847
0.000849148
0.000848529
0.000847624
0.000846756
0.000845661
0.000844781
0.000843772
0.00084305
0.000842249
0.000841682
0.000841099
0.000840719
0.000840272
0.000839936
0.000839468
0.000851549
0.00085067
0.00084986
0.000849076
0.000848369
0.000847639
0.000846969
0.000846269
0.000845644
0.000844999
0.000844439
0.000843869
0.000843365
0.000842865
0.000842417
0.000841978
0.00084156
0.000841148
0.00085154
0.000850673
0.000849856
0.000849072
0.000848337
0.000847626
0.000846959
0.00084631
0.000845702
0.000845111
0.000844558
0.000844019
0.000843513
0.000843023
0.00084256
0.000842114
0.00084169
0.00084128
0.000851538
0.000850673
0.000849852
0.00084907
0.000848327
0.000847619
0.000846946
0.000846302
0.000845689
0.000845103
0.000844543
0.000844007
0.000843496
0.000843006
0.000842538
0.00084209
0.000841662
0.000841253
0.000851539
0.000850678
0.000849858
0.000849078
0.000848335
0.000847628
0.000846953
0.00084631
0.000845695
0.000845109
0.000844547
0.00084401
0.000843496
0.000843005
0.000842535
0.000842086
0.000841655
0.000841245
0.000851537
0.000850674
0.000849852
0.00084907
0.000848325
0.000847616
0.00084694
0.000846295
0.000845678
0.000845089
0.000844525
0.000843987
0.00084347
0.000842978
0.000842505
0.000842055
0.000841622
0.000841211
0.000851536
0.000850675
0.000849853
0.000849071
0.000848325
0.000847619
0.000846941
0.000846297
0.000845674
0.000845083
0.000844511
0.000843971
0.00084345
0.000842959
0.000842485
0.000842038
0.000841605
0.000841197
0.000851533
0.000850678
0.000849866
0.000849062
0.000848326
0.000847586
0.000846871
0.000846136
0.00084542
0.00084474
0.000844102
0.000843529
0.000843001
0.000842531
0.000842081
0.000841687
0.00084128
0.000840931
0.000851483
0.000850766
0.000849962
0.000848844
0.00084779
0.000846207
0.000844528
0.000842522
0.000840554
0.000839081
0.000837902
0.000837242
0.000836799
0.000836662
0.000836551
0.000836782
0.000836596
0.000836851
0.000851739
0.000852513
0.000848651
0.000843907
0.000838149
0.00082837
0.000819717
0.000808346
0.000797622
0.000792814
0.000788932
0.000787491
0.000787303
0.000788181
0.000790014
0.000793453
0.000791309
0.000795238
0.000853415
0.00084984
0.000835386
0.000797295
0.000771963
0.000725698
0.000693509
0.000658923
0.000625343
0.000607956
0.000591488
0.000576126
0.000569333
0.00056863
0.000566172
0.000559409
0.000565781
0.000578516
0.000855704
0.000813777
0.000771551
0.000677132
0.000578594
0.000466041
0.000410235
0.000358486
0.000319375
0.00030403
0.000293355
0.000284058
0.000278295
0.000279702
0.000282166
0.000282793
0.000294461
0.000310892
0.000896701
0.000555596
0.000512195
0.000301474
0.000165543
0.000132352
0.000128126
9.61319e-05
8.93304e-05
7.9127e-05
7.18407e-05
7.38923e-05
7.79471e-05
8.79623e-05
0.000102945
0.000122619
0.000131694
0.000137341
0.0013275
0.000420858
0.000357604
8.82049e-05
2.66627e-05
1.78346e-05
1.30242e-05
7.22928e-06
6.29056e-06
5.40269e-06
5.37653e-06
6.00497e-06
7.68382e-06
1.30506e-05
2.29352e-05
3.67131e-05
4.52505e-05
5.09824e-05
0.00299942
0.000375273
0.000125531
4.85236e-05
2.40211e-05
1.42763e-05
6.01552e-06
2.74978e-06
2.40279e-06
2.40531e-06
2.40722e-06
2.61515e-06
2.34746e-06
4.02273e-06
7.52115e-06
1.36993e-05
1.92934e-05
2.5256e-05
0.000601848
5.0312e-05
2.43571e-05
2.16339e-05
1.37345e-05
1.49909e-05
1.36033e-05
1.3647e-05
1.47141e-05
1.54535e-05
1.61179e-05
1.7479e-05
1.85995e-05
2.37955e-05
2.93356e-05
3.58481e-05
4.02073e-05
4.44408e-05
1.25322e-05
1.69231e-05
1.97231e-05
2.13613e-05
2.20276e-05
2.22288e-05
2.19668e-05
2.16393e-05
2.11234e-05
2.06637e-05
2.02434e-05
1.98521e-05
1.94619e-05
1.9131e-05
1.88725e-05
1.86887e-05
1.85561e-05
1.84679e-05
1.09338e-12
1.23686e-10
6.37496e-10
2.5371e-09
8.4268e-09
2.46363e-08
6.72042e-08
1.48982e-07
2.64131e-07
4.02012e-07
5.42936e-07
6.66712e-07
7.89444e-07
8.80898e-07
9.19014e-07
9.03308e-07
8.721e-07
8.05042e-07
7.02553e-07
5.93817e-07
5.02258e-07
4.17601e-07
3.35597e-07
2.5782e-07
1.85799e-07
1.21373e-07
7.04391e-08
3.62248e-08
1.69824e-08
7.80587e-09
3.73643e-09
1.92648e-09
1.13247e-09
8.88039e-10
1.253e-09
3.18282e-09
9.65008e-09
2.65612e-08
1.11652e-07
2.40137e-07
3.90437e-07
4.56369e-07
4.32544e-07
3.72628e-07
3.2138e-07
3.34373e-07
3.83683e-07
5.14329e-07
7.27049e-07
1.5638e-06
3.67609e-06
1.0466e-05
2.24352e-05
3.4294e-05
3.98271e-05
2.782e-05
3.56796e-05
3.64007e-05
3.26622e-05
3.65301e-05
3.13213e-05
3.07859e-05
3.3374e-05
3.15205e-05
3.1615e-05
3.32018e-05
3.34086e-05
3.40936e-05
3.45425e-05
3.51102e-05
3.55834e-05
3.61167e-05
3.65941e-05
3.71093e-05
3.75918e-05
3.80972e-05
3.85835e-05
3.90843e-05
3.95754e-05
4.00763e-05
4.05731e-05
4.1076e-05
4.15789e-05
4.20853e-05
4.25946e-05
4.31051e-05
4.36196e-05
4.41327e-05
4.46485e-05
4.51624e-05
4.56777e-05
4.61932e-05
4.6709e-05
4.72237e-05
4.77373e-05
4.82482e-05
4.87566e-05
4.9262e-05
4.97672e-05
5.02775e-05
5.07947e-05
5.1309e-05
5.18289e-05
5.2352e-05
5.28811e-05
5.34138e-05
5.39521e-05
5.44942e-05
5.50428e-05
5.55958e-05
5.61568e-05
5.67232e-05
5.7299e-05
5.78814e-05
5.84745e-05
5.90756e-05
5.96889e-05
6.03117e-05
6.09477e-05
6.15951e-05
6.22579e-05
6.29357e-05
6.36316e-05
6.43446e-05
6.50769e-05
6.5828e-05
6.66e-05
6.73923e-05
6.82048e-05
6.90359e-05
6.98876e-05
7.08305e-05
7.17668e-05
7.27771e-05
7.3846e-05
7.49541e-05
7.61004e-05
7.73126e-05
7.76778e-05
7.74639e-05
7.72339e-05
7.69887e-05
7.67329e-05
7.64644e-05
7.61848e-05
7.58952e-05
7.55892e-05
7.52842e-05
7.49528e-05
7.463e-05
7.42759e-05
7.39361e-05
7.356e-05
7.32047e-05
7.28081e-05
7.24394e-05
7.20258e-05
7.16453e-05
7.1219e-05
7.08271e-05
7.0395e-05
6.99838e-05
6.95581e-05
6.91331e-05
6.87055e-05
6.82757e-05
6.78455e-05
6.74144e-05
6.69845e-05
6.65549e-05
6.61281e-05
6.57023e-05
6.52786e-05
6.48539e-05
6.44267e-05
6.39876e-05
6.35282e-05
6.30168e-05
6.2399e-05
6.08203e-05
4.68728e-12
7.58902e-10
9.57835e-09
4.71366e-08
1.89319e-07
7.65505e-07
1.99114e-06
4.02149e-06
6.80287e-06
1.00951e-05
1.37196e-05
1.73608e-05
2.0542e-05
2.30564e-05
2.5014e-05
2.56981e-05
2.58202e-05
2.55276e-05
2.4528e-05
2.27151e-05
1.91594e-05
1.52883e-05
1.14042e-05
8.08424e-06
5.44936e-06
3.37267e-06
2.03342e-06
1.19128e-06
6.9891e-07
4.07193e-07
2.38988e-07
1.47988e-07
1.00948e-07
8.24109e-08
1.0145e-07
1.94044e-07
5.98363e-07
1.30766e-06
6.18744e-06
1.25807e-05
1.89946e-05
2.19524e-05
2.19785e-05
2.06512e-05
1.92039e-05
1.86258e-05
1.87243e-05
1.90089e-05
2.29087e-05
3.20243e-05
4.25718e-05
5.37424e-05
6.39351e-05
7.37666e-05
8.2988e-05
9.05301e-05
0.000101902
0.00011304
0.000124593
0.000136813
0.000146742
0.000160722
0.00017699
0.000187566
0.000201634
0.000214512
0.000225787
0.000238144
0.000248907
0.000260015
0.000270929
0.000281835
0.000291474
0.000301272
0.00031072
0.000320005
0.000329086
0.000337988
0.00034671
0.00035527
0.000363655
0.000371886
0.000379947
0.000387857
0.000395605
0.000403204
0.000410651
0.000417949
0.000425093
0.000432086
0.000438916
0.000445607
0.000452156
0.000458567
0.000464834
0.00047094
0.000476857
0.000482525
0.000487861
0.000492694
0.000497071
0.000501465
0.000505733
0.000509907
0.000513999
0.00051799
0.000521889
0.000525687
0.000529383
0.000532972
0.000536453
0.000539824
0.000543081
0.000546223
0.000549246
0.000552148
0.000554925
0.000557575
0.000560094
0.000562482
0.000564735
0.000566853
0.000568834
0.000570676
0.000572378
0.000573937
0.000575352
0.000576622
0.000577749
0.000578723
0.000579533
0.000580137
0.000580595
0.000580834
0.00058094
0.000580729
0.000580882
0.000580644
0.000580781
0.00058094
0.00058094
0.000580684
0.00058032
0.000579818
0.000579178
0.000578384
0.000577607
0.000576444
0.00057555
0.000574056
0.000572953
0.000571165
0.000569845
0.00056777
0.000566224
0.000563893
0.000562114
0.000559575
0.000557552
0.000554867
0.000552595
0.000549873
0.000547226
0.000544487
0.000541667
0.000538788
0.000535832
0.000532824
0.000529752
0.000526636
0.000523468
0.000520257
0.000516988
0.000513662
0.000510212
0.000506572
0.000502609
0.000498009
0.000492036
0.000475962
9.88673e-12
1.65066e-09
3.23068e-08
2.12454e-07
6.8655e-07
2.07775e-06
4.62386e-06
8.57152e-06
1.37084e-05
1.9768e-05
2.64869e-05
3.34701e-05
4.01759e-05
4.62389e-05
5.14374e-05
5.51442e-05
5.77375e-05
5.95549e-05
6.02185e-05
5.92512e-05
5.65712e-05
5.28487e-05
4.70122e-05
3.96552e-05
3.17525e-05
2.40549e-05
1.70862e-05
1.12881e-05
7.12191e-06
4.18741e-06
2.5299e-06
1.60208e-06
1.07901e-06
8.23213e-07
7.38963e-07
8.42966e-07
3.12068e-06
8.32557e-06
2.65252e-05
4.56519e-05
5.79123e-05
5.97089e-05
5.5282e-05
4.63774e-05
4.53739e-05
5.26195e-05
6.06413e-05
7.06036e-05
8.34441e-05
9.59183e-05
0.000110259
0.000128051
0.000147836
0.000170137
0.000194033
0.000219942
0.000248424
0.000279453
0.000309872
0.000340561
0.000369258
0.00039883
0.000427067
0.000452614
0.000478899
0.000504251
0.000529427
0.000551829
0.000574856
0.000595989
0.000616813
0.000637054
0.000656555
0.00067578
0.000694538
0.000712939
0.000730982
0.000748681
0.000766053
0.000783104
0.00079984
0.00081627
0.000832392
0.000848217
0.000863743
0.00087898
0.000893925
0.000908585
0.000922953
0.000937028
0.000950806
0.000964299
0.000977505
0.000990417
0.00100302
0.00101528
0.00102718
0.00103867
0.00104971
0.00106033
0.00107068
0.00108089
0.00109088
0.00110068
0.00111028
0.00111967
0.00112886
0.00113783
0.00114658
0.0011551
0.00116338
0.00117143
0.00117922
0.00118677
0.00119405
0.00120108
0.00120783
0.00121431
0.0012205
0.0012264
0.00123202
0.00123734
0.00124236
0.00124709
0.00125151
0.00125562
0.00125942
0.00126291
0.00126608
0.00126892
0.00127141
0.00127356
0.0012754
0.00127689
0.00127809
0.00127887
0.00127961
0.00128
0.00128035
0.00128046
0.00128028
0.00127976
0.00127896
0.00127786
0.00127646
0.00127477
0.00127284
0.00127049
0.00126809
0.00126509
0.00126215
0.00125853
0.00125507
0.00125083
0.00124684
0.00124204
0.00123755
0.00123225
0.00122727
0.00122158
0.00121615
0.00121021
0.00120424
0.00119809
0.00119179
0.00118535
0.00117876
0.00117206
0.00116525
0.00115835
0.00115135
0.00114427
0.00113709
0.00112978
0.00112223
0.0011143
0.00110568
0.00109561
0.00108226
0.00105312
3.88182e-11
6.53422e-09
1.19201e-07
5.93319e-07
1.71622e-06
4.63923e-06
1.00652e-05
1.73452e-05
2.6443e-05
3.67167e-05
4.7264e-05
5.75586e-05
6.71033e-05
7.54124e-05
8.20469e-05
8.71242e-05
9.0772e-05
9.27402e-05
9.32459e-05
9.24567e-05
9.01993e-05
8.64554e-05
8.15189e-05
7.5397e-05
6.7193e-05
5.73936e-05
4.68216e-05
3.60675e-05
2.66179e-05
1.8872e-05
1.28408e-05
8.40525e-06
5.80555e-06
4.12492e-06
3.99155e-06
5.90444e-06
1.57787e-05
3.67466e-05
5.91671e-05
7.46458e-05
7.83343e-05
7.62658e-05
7.73672e-05
8.20567e-05
9.04356e-05
0.000102598
0.00011923
0.000131355
0.000153819
0.000177009
0.0002064
0.000239029
0.000275849
0.000315426
0.000357144
0.000400426
0.000444493
0.000489305
0.000532628
0.000575045
0.000615937
0.000655191
0.000695126
0.000731122
0.000766966
0.00080181
0.000836184
0.000867991
0.000899336
0.000929527
0.000959112
0.00098802
0.00101629
0.00104407
0.00107132
0.0010981
0.00112441
0.00115027
0.00117568
0.00120066
0.00122519
0.0012493
0.00127297
0.00129622
0.00131904
0.00134145
0.00136343
0.001385
0.00140615
0.00142688
0.00144718
0.00146707
0.00148654
0.00150559
0.0015242
0.00154237
0.00156009
0.00157734
0.00159414
0.00161057
0.00162667
0.0016425
0.00165802
0.00167323
0.00168813
0.00170272
0.00171698
0.0017309
0.00174449
0.00175771
0.00177058
0.00178307
0.00179518
0.00180691
0.00181824
0.00182916
0.00183967
0.00184975
0.00185941
0.00186862
0.00187739
0.00188571
0.00189358
0.00190099
0.00190794
0.00191443
0.00192044
0.00192599
0.00193105
0.00193563
0.00193972
0.00194333
0.00194649
0.00194917
0.00195139
0.00195306
0.00195434
0.00195526
0.00195583
0.00195599
0.00195571
0.00195498
0.00195382
0.00195222
0.00195018
0.00194771
0.00194482
0.00194145
0.00193775
0.0019335
0.00192897
0.00192385
0.0019185
0.00191251
0.00190636
0.00189955
0.00189264
0.00188509
0.00187748
0.00186931
0.00186108
0.00185241
0.00184357
0.00183448
0.00182517
0.00181565
0.00180594
0.00179605
0.00178601
0.00177584
0.00176554
0.00175513
0.00174459
0.00173387
0.00172286
0.00171135
0.00169896
0.00168465
0.00166587
0.00163125
1.36038e-10
2.23152e-08
2.89687e-07
1.25141e-06
4.254e-06
1.10916e-05
2.15104e-05
3.52098e-05
5.08917e-05
6.68652e-05
8.18848e-05
9.52728e-05
0.000106237
0.00011452
0.000120623
0.000124225
0.000125948
0.000126129
0.000124994
0.000122744
0.000119478
0.000114902
0.000109598
0.000103463
9.57854e-05
8.65783e-05
7.59681e-05
6.40132e-05
5.17937e-05
4.06019e-05
3.10936e-05
2.36996e-05
1.75625e-05
1.46696e-05
1.69467e-05
3.10496e-05
5.74729e-05
7.95062e-05
9.08941e-05
9.65604e-05
0.000100722
0.00010641
0.000115994
0.000130922
0.000148391
0.000161525
0.000185811
0.000215854
0.000251062
0.000289968
0.000335127
0.000382666
0.000433748
0.000486304
0.000540034
0.000594201
0.00064813
0.000701515
0.000753351
0.000803517
0.000853062
0.000900071
0.000946851
0.000991057
0.0010341
0.00107601
0.00111682
0.00115622
0.00119479
0.00123244
0.00126937
0.00130559
0.00134116
0.00137613
0.00141052
0.00144435
0.00147762
0.00151035
0.00154254
0.00157418
0.00160529
0.00163585
0.00166588
0.00169538
0.00172434
0.00175277
0.00178068
0.00180806
0.00183493
0.00186127
0.00188708
0.00191239
0.00193718
0.00196146
0.00198523
0.00200849
0.00203125
0.00205352
0.00207532
0.00209669
0.00211766
0.00213824
0.00215841
0.00217817
0.00219751
0.00221644
0.00223493
0.00225297
0.00227055
0.00228767
0.0023043
0.00232044
0.00233608
0.00235121
0.00236582
0.0023799
0.00239343
0.00240641
0.00241883
0.00243068
0.00244195
0.00245264
0.00246274
0.00247226
0.00248118
0.00248951
0.00249724
0.00250437
0.0025109
0.00251682
0.00252214
0.00252686
0.00253106
0.00253466
0.00253766
0.00253996
0.00254171
0.00254301
0.00254381
0.00254406
0.00254376
0.00254292
0.00254153
0.0025396
0.00253712
0.00253411
0.00253056
0.00252646
0.00252187
0.00251672
0.00251109
0.00250489
0.00249823
0.00249099
0.00248333
0.00247509
0.00246649
0.00245734
0.00244789
0.00243794
0.00242773
0.00241712
0.00240621
0.00239502
0.00238354
0.00237181
0.00235983
0.00234763
0.00233525
0.00232269
0.00230999
0.00229715
0.00228414
0.00227093
0.00225741
0.00224337
0.00222843
0.00221155
0.00218982
0.00215482
4.25095e-10
5.63172e-08
6.50179e-07
3.23059e-06
1.10447e-05
2.53239e-05
4.46268e-05
6.63881e-05
8.80029e-05
0.000106984
0.000122174
0.000133502
0.000141927
0.000147385
0.000150582
0.000152035
0.000152046
0.000150822
0.000148543
0.000145358
0.000141295
0.000136158
0.000130498
0.000124037
0.000116336
0.000107378
9.71528e-05
8.4378e-05
6.86777e-05
5.36683e-05
4.00196e-05
3.02255e-05
2.84096e-05
3.35573e-05
5.11478e-05
7.72665e-05
9.81248e-05
0.000111487
0.000119622
0.000126628
0.00013728
0.00015442
0.00017282
0.000186678
0.000211997
0.000242184
0.000280285
0.000323901
0.000372745
0.000425175
0.000481679
0.00053984
0.00060005
0.000660746
0.000721591
0.000782121
0.000841838
0.000900559
0.000957949
0.00101337
0.00106779
0.0011206
0.0011722
0.00122202
0.00127069
0.00131816
0.00136451
0.00140975
0.00145409
0.00149756
0.00154027
0.00158226
0.00162356
0.00166421
0.00170421
0.00174359
0.00178234
0.00182047
0.00185798
0.00189486
0.00193111
0.00196673
0.00200173
0.00203611
0.00206987
0.00210303
0.00213557
0.00216751
0.00219886
0.00222961
0.00225976
0.00228934
0.00231834
0.00234678
0.00237465
0.00240196
0.00242875
0.00245499
0.00248072
0.00250596
0.0025307
0.00255497
0.00257874
0.00260201
0.00262478
0.00264704
0.00266876
0.00268995
0.00271058
0.00273064
0.00275012
0.00276901
0.0027873
0.00280497
0.00282202
0.00283843
0.00285419
0.00286929
0.00288373
0.00289747
0.00291054
0.00292292
0.00293461
0.00294561
0.00295592
0.00296553
0.00297445
0.00298267
0.00299019
0.00299702
0.00300315
0.00300869
0.00301356
0.00301778
0.00302129
0.00302398
0.00302612
0.00302767
0.00302862
0.00302894
0.00302865
0.00302774
0.00302623
0.00302411
0.00302138
0.00301805
0.00301412
0.0030096
0.0030045
0.00299881
0.00299255
0.00298571
0.00297831
0.00297032
0.0029618
0.00295272
0.00294315
0.00293305
0.00292252
0.00291152
0.00290014
0.00288836
0.00287623
0.00286376
0.00285098
0.00283789
0.00282452
0.0028109
0.00279706
0.00278302
0.00276882
0.00275446
0.00273993
0.0027252
0.00271019
0.00269471
0.00267843
0.00266043
0.00263813
0.00260497
1.34833e-09
1.37618e-07
1.69515e-06
8.87279e-06
2.62017e-05
5.13256e-05
7.94068e-05
0.000104628
0.000124576
0.000139685
0.000151135
0.000159209
0.00016441
0.000167471
0.000168845
0.000168884
0.000167824
0.000165809
0.000162963
0.000159324
0.000154847
0.000149518
0.000143671
0.000136849
0.000128747
0.000114255
9.85651e-05
8.38003e-05
6.97736e-05
5.6952e-05
4.80768e-05
4.78501e-05
5.91855e-05
7.99607e-05
0.000107838
0.000124989
0.000137245
0.000146901
0.000158166
0.000175216
0.000194327
0.00020819
0.000231485
0.000260753
0.000298287
0.000341944
0.000392506
0.000447499
0.000506275
0.000567507
0.000630976
0.000695447
0.000760678
0.000825885
0.000890838
0.00095519
0.00101823
0.00107991
0.00114041
0.0011995
0.00125742
0.00131391
0.00136904
0.00142278
0.00147534
0.00152677
0.00157715
0.00162654
0.00167504
0.00172271
0.00176961
0.00181578
0.00186125
0.00190604
0.00195015
0.0019936
0.00203637
0.00207847
0.00211988
0.00216061
0.00220065
0.00223999
0.00227864
0.00231661
0.0023539
0.00239052
0.00242648
0.00246178
0.00249644
0.00253045
0.00256383
0.00259659
0.00262873
0.00266027
0.00269121
0.00272156
0.00275131
0.00278049
0.0028091
0.00283715
0.00286466
0.00289162
0.00291803
0.00294386
0.00296913
0.0029938
0.00301787
0.00304133
0.00306415
0.00308633
0.00310786
0.00312871
0.00314887
0.00316833
0.00318709
0.00320512
0.00322243
0.00323899
0.00325482
0.00326989
0.0032842
0.00329774
0.00331051
0.0033225
0.00333373
0.00334418
0.00335387
0.00336279
0.00337095
0.00337835
0.003385
0.00339103
0.00339631
0.00340088
0.00340468
0.0034076
0.00340997
0.00341166
0.00341269
0.00341305
0.00341275
0.0034118
0.00341021
0.00340798
0.00340514
0.0034017
0.00339764
0.00339296
0.00338767
0.00338178
0.00337528
0.00336819
0.00336051
0.00335223
0.00334338
0.00333397
0.00332402
0.00331354
0.00330259
0.00329116
0.0032793
0.00326703
0.00325437
0.00324135
0.00322798
0.00321429
0.00320029
0.003186
0.00317147
0.00315672
0.00314178
0.00312668
0.0031114
0.00309594
0.00308024
0.00306416
0.00304743
0.0030293
0.00300775
0.00297764
4.24736e-09
3.66677e-07
4.43845e-06
2.18902e-05
5.1508e-05
8.52195e-05
0.000115188
0.00013875
0.000155816
0.000167774
0.000174932
0.000178707
0.00018021
0.000180248
0.000179304
0.000177661
0.000175478
0.000172806
0.000169476
0.000165349
0.000160319
0.000154491
0.000147661
0.000139864
0.000126216
0.000109924
9.43563e-05
8.02793e-05
7.0157e-05
6.77635e-05
7.1023e-05
8.38432e-05
0.00011053
0.000139925
0.000159665
0.000170943
0.000183171
0.000199245
0.000213247
0.000226467
0.000246622
0.000273627
0.000308437
0.000350067
0.000398963
0.000453488
0.000512824
0.00057507
0.000639642
0.000705807
0.000773197
0.000841038
0.000908953
0.000976524
0.00104312
0.00110862
0.00117324
0.00123669
0.00129903
0.00136008
0.00141987
0.0014784
0.00153566
0.00159171
0.00164664
0.00170053
0.00175344
0.00180542
0.00185656
0.00190692
0.00195652
0.00200542
0.00205363
0.00210116
0.002148
0.00219416
0.00223964
0.00228441
0.00232847
0.00237181
0.00241441
0.00245628
0.00249742
0.00253783
0.00257751
0.00261649
0.00265477
0.00269237
0.00272931
0.00276558
0.00280119
0.00283617
0.00287051
0.00290424
0.00293736
0.00296986
0.00300173
0.00303302
0.00306373
0.00309386
0.00312341
0.00315238
0.00318076
0.00320853
0.00323569
0.00326221
0.00328808
0.00331329
0.00333782
0.00336165
0.00338476
0.00340715
0.00342878
0.00344966
0.00346976
0.00348908
0.0035076
0.00352531
0.00354221
0.00355827
0.0035735
0.00358789
0.00360145
0.00361418
0.00362607
0.00363714
0.00364738
0.0036568
0.00366542
0.00367323
0.00368027
0.00368667
0.00369225
0.0036971
0.00370112
0.0037043
0.00370688
0.00370875
0.00370993
0.00371042
0.00371023
0.00370939
0.00370789
0.00370574
0.00370293
0.00369951
0.00369546
0.00369078
0.00368549
0.00367959
0.00367308
0.00366597
0.00365825
0.00364994
0.00364105
0.00363158
0.00362157
0.00361103
0.0036
0.00358848
0.00357652
0.00356413
0.00355133
0.00353815
0.00352461
0.00351071
0.00349649
0.00348197
0.00346718
0.00345215
0.00343691
0.00342149
0.0034059
0.00339014
0.00337418
0.00335792
0.00334116
0.00332332
0.00330296
0.00327638
1.21012e-08
9.48775e-07
1.15461e-05
4.12838e-05
8.01376e-05
0.000115827
0.000143456
0.000163206
0.00017633
0.000183705
0.000187318
0.00018826
0.000187384
0.00018541
0.000182824
0.000179884
0.000176628
0.000172916
0.000168739
0.000164048
0.000158699
0.000152488
0.000145152
0.000137
0.000123711
0.000111131
0.000103036
9.67064e-05
9.0281e-05
9.45035e-05
0.000114034
0.000139504
0.000165111
0.000188004
0.000205517
0.000217685
0.000228008
0.000240911
0.000258707
0.000282553
0.000313744
0.000352037
0.000397375
0.00044893
0.00050609
0.000567363
0.000631695
0.000697958
0.000765671
0.000834215
0.00090321
0.00097221
0.00104073
0.00110826
0.00117522
0.00124089
0.00130585
0.00136969
0.00143238
0.00149388
0.00155419
0.00161331
0.00167127
0.00172813
0.00178396
0.00183883
0.00189279
0.0019459
0.00199822
0.00204981
0.00210072
0.00215098
0.00220061
0.0022496
0.00229794
0.00234561
0.00239261
0.00243893
0.00248454
0.00252943
0.00257357
0.00261696
0.00265959
0.00270148
0.00274265
0.00278314
0.00282291
0.00286197
0.00290034
0.00293803
0.00297506
0.00301144
0.00304719
0.00308233
0.00311686
0.0031508
0.00318415
0.00321692
0.00324911
0.00328072
0.00331174
0.00334217
0.00337198
0.00340118
0.00342974
0.00345764
0.00348487
0.0035114
0.00353722
0.0035623
0.00358663
0.00361019
0.00363296
0.00365492
0.00367606
0.00369636
0.00371582
0.00373441
0.00375213
0.00376897
0.00378493
0.0038
0.00381418
0.00382747
0.00383989
0.00385143
0.00386211
0.00387192
0.0038809
0.00388904
0.0038964
0.00390307
0.00390893
0.003914
0.00391823
0.00392168
0.00392447
0.00392654
0.00392792
0.00392861
0.00392863
0.00392799
0.00392671
0.00392478
0.00392222
0.00391905
0.00391526
0.00391086
0.00390586
0.00390026
0.00389407
0.00388729
0.00387991
0.00387195
0.00386342
0.00385433
0.0038447
0.00383455
0.0038239
0.00381278
0.00380121
0.00378921
0.00377679
0.00376398
0.00375079
0.00373724
0.00372334
0.00370913
0.00369462
0.00367986
0.00366487
0.00364969
0.00363432
0.00361878
0.00360306
0.00358711
0.00357079
0.00355365
0.00353443
0.00351081
2.94252e-08
2.30626e-06
2.30035e-05
6.50364e-05
0.000109012
0.000144423
0.000169031
0.000184106
0.000192526
0.000195865
0.000195452
0.000192667
0.000188629
0.000184099
0.0001795
0.00017496
0.000170452
0.000165624
0.000160571
0.000154747
0.000148343
0.000140602
0.000131362
0.000121702
0.00011148
0.000103308
0.000100722
0.0001065
0.000121278
0.000141902
0.000164159
0.000186387
0.000206056
0.000221521
0.000235778
0.000249844
0.000267213
0.00028853
0.000316157
0.00035047
0.000391537
0.000438881
0.000491975
0.000549983
0.000611988
0.000676798
0.000743525
0.000811383
0.000879948
0.000948813
0.00101768
0.0010858
0.00115332
0.00122004
0.00128598
0.00135094
0.00141489
0.00147773
0.00153944
0.0016
0.00165941
0.00171768
0.00177486
0.00183101
0.00188623
0.0019406
0.00199417
0.00204697
0.00209902
0.00215045
0.00220131
0.00225165
0.00230148
0.00235086
0.00239989
0.00244842
0.00249631
0.00254351
0.00258998
0.00263572
0.00268068
0.00272485
0.00276822
0.00281079
0.00285258
0.0028936
0.0029339
0.00297354
0.00301253
0.0030509
0.00308864
0.00312578
0.00316234
0.00319834
0.00323378
0.00326867
0.00330302
0.00333681
0.00337004
0.00340271
0.00343481
0.00346632
0.00349724
0.00352754
0.00355721
0.00358622
0.00361455
0.00364218
0.00366909
0.00369525
0.00372063
0.00374522
0.00376899
0.00379193
0.00381402
0.00383523
0.00385556
0.00387498
0.00389349
0.00391108
0.00392775
0.00394348
0.00395828
0.00397216
0.00398511
0.00399715
0.00400828
0.00401853
0.0040279
0.00403641
0.00404414
0.0040511
0.00405726
0.00406263
0.00406716
0.00407095
0.00407403
0.0040764
0.00407807
0.00407907
0.00407941
0.0040791
0.00407817
0.00407662
0.00407446
0.0040717
0.00406835
0.00406442
0.00405991
0.00405483
0.00404917
0.00404294
0.00403615
0.00402878
0.00402086
0.00401241
0.00400343
0.00399394
0.00398397
0.00397354
0.00396266
0.00395135
0.00393962
0.0039275
0.00391499
0.0039021
0.00388886
0.00387528
0.0038614
0.00384724
0.00383283
0.00381819
0.00380336
0.00378836
0.00377318
0.0037578
0.00374216
0.0037259
0.003708
0.00368769
6.16852e-08
5.15448e-06
3.79743e-05
8.74128e-05
0.000132556
0.000166401
0.000188031
0.000199671
0.000203366
0.00020193
0.000197369
0.000191138
0.000184242
0.000177297
0.000170677
0.000164142
0.00015804
0.000151823
0.000145826
0.000139585
0.000133489
0.000127234
0.000121465
0.00011724
0.000116917
0.000122524
0.000133235
0.000148276
0.000166378
0.000185892
0.000204918
0.00022169
0.000237389
0.000253876
0.000271742
0.000291801
0.000316787
0.000347329
0.000384091
0.00042686
0.000475214
0.000528566
0.000586298
0.000647626
0.000711691
0.000777572
0.000844562
0.000912124
0.000979907
0.00104746
0.00111425
0.00118072
0.00124611
0.00131081
0.00137455
0.00143723
0.00149877
0.00155917
0.0016184
0.00167651
0.00173351
0.00178945
0.00184418
0.00189797
0.00195095
0.00200324
0.00205501
0.00210652
0.00215775
0.0022085
0.00225877
0.00230857
0.00235792
0.00240681
0.00245517
0.00250303
0.00255038
0.00259715
0.00264337
0.00268899
0.00273395
0.00277819
0.00282168
0.00286441
0.0029064
0.00294769
0.00298834
0.00302836
0.00306776
0.00310658
0.00314481
0.00318248
0.0032196
0.0032562
0.00329228
0.00332785
0.00336292
0.00339746
0.00343149
0.00346499
0.00349796
0.00353038
0.00356222
0.00359349
0.00362415
0.00365417
0.00368354
0.00371221
0.00374017
0.00376739
0.00379383
0.00381948
0.00384429
0.00386826
0.00389136
0.00391357
0.00393486
0.00395522
0.00397464
0.00399311
0.00401061
0.00402714
0.00404271
0.00405731
0.00407095
0.00408363
0.00409538
0.0041062
0.00411611
0.00412515
0.00413337
0.00414078
0.00414738
0.00415317
0.00415816
0.00416241
0.00416593
0.00416873
0.00417084
0.00417229
0.00417309
0.00417327
0.00417284
0.00417182
0.00417021
0.00416803
0.00416529
0.004162
0.00415815
0.00415376
0.00414883
0.00414334
0.00413731
0.00413073
0.00412362
0.00411599
0.00410786
0.00409924
0.00409015
0.00408061
0.00407064
0.00406024
0.00404943
0.00403821
0.0040266
0.00401461
0.00400225
0.00398954
0.00397651
0.00396318
0.00394957
0.00393572
0.00392164
0.00390737
0.00389291
0.00387828
0.00386343
0.00384813
0.00383144
0.00381398
1.08946e-07
9.98494e-06
5.4418e-05
0.00011056
0.00015654
0.000187179
0.00020435
0.000210817
0.000210051
0.000204763
0.000196944
0.000187978
0.000178858
0.000169811
0.000161653
0.000153971
0.000147282
0.000141385
0.000136733
0.000133141
0.000130757
0.000130401
0.000132814
0.000138507
0.000147428
0.00015895
0.000172963
0.000188801
0.000205561
0.000221814
0.000237252
0.000254463
0.000273105
0.000293153
0.000316422
0.000343945