/*--------------------------------*- C++ -*----------------------------------*\
  =========                 |
  \\      /  F ield         | OpenFOAM: The Open Source CFD Toolbox
   \\    /   O peration     | Website:  https://openfoam.org
    \\  /    A nd           | Version:  13
     \\/     M anipulation  |
\*---------------------------------------------------------------------------*/
FoamFile
{
    format      ascii;
    class       volScalarField;
    location    "1900";
    object      omega;
}
// * * * * * * * * * * * * * * * * * * * * * * * * * * * * * * * * * * * * * //

dimensions      [0 0 -1 0 0 0 0];

internalField   nonuniform List<scalar> 
12225
(
31477.7
36963.2
41992.2
50701
52742.5
53639.6
45868.9
38424.1
48334.4
43170.1
37339.3
31477.7
31477.7
31477.7
41038.9
42374.9
40115.4
43568.2
4888.64
7552.21
13722.1
19574.2
17683.7
22506.1
19342.4
18048.1
19889.3
19928.5
18537
17489.3
16966.1
16703.9
17091
17796.3
17718.7
18051.1
1350.53
1379.78
2261.12
3451.26
4395.33
5618.77
6168.51
6606.3
7023.69
7365.88
7652.3
7877.28
8078.89
8225.52
8317.67
8479.62
8522.42
8602.65
668.573
635.642
847.56
1149.13
1374.69
1718.26
2118.14
2472.93
2631.19
2876.1
3266.91
3565.23
3650.1
4069.06
4189.28
4222.87
4378.36
4510.75
489.51
537.057
590.374
1012.34
1076.89
1124.33
1312.07
1717.26
2123.66
2201.24
2465.1
3554.17
3606.26
3950.11
3995.84
3774.52
3409.08
3081.3
447.588
481.501
506.029
610.333
875.083
964.605
1008.11
1662.17
2004.89
2049.75
2821.87
2909.09
3181
3188.69
2977.34
2638.78
2313.24
1982.34
439.535
445.744
474.838
524.633
694.111
788.214
813.247
1170.18
1380.42
1433.05
1532.61
1644.57
1888.04
1926.89
1809.96
1599.89
1429.85
1230.72
439.01
436.269
442.538
538.413
685.391
754.152
768.78
886.237
1004.99
1090.4
1205.73
1222.73
1233.45
1188.51
1110.55
1008.32
921.926
843.148
439.145
435.47
435.142
462.81
539.382
615.202
679.993
736.414
756.38
761.396
790.6
807.442
809.897
785.117
749.504
714.27
692.686
684.601
438.555
436.53
433.406
436.587
460.077
491.832
517.511
542.717
559.662
570.061
585.467
590.245
599.188
596.253
586.587
570.267
550.647
534.821
438.849
436.889
433.18
432.074
434.931
444.829
453.21
462.437
468.519
475.55
481.711
483.511
489.15
488.961
486.31
480.805
472.836
465.619
438.846
437.001
434.478
431.255
430.527
431.917
433.692
436.043
437.709
439.842
440.331
441.027
442.442
443.403
443.427
441.525
437.96
434.493
438.92
436.869
434.686
432.351
430.409
429.264
428.323
427.778
427.01
426.498
425.698
424.891
423.955
422.958
421.84
420.721
419.367
418.179
438.981
436.791
434.675
432.63
430.67
428.949
427.319
425.887
424.454
423.164
421.834
420.612
419.367
418.183
416.978
415.843
414.716
413.68
438.998
436.778
434.66
432.656
430.735
428.936
427.212
425.602
424.049
422.593
421.18
419.851
418.564
417.344
416.165
415.042
413.966
412.939
439
436.774
434.657
432.649
430.739
428.927
427.201
425.562
424
422.514
421.097
419.745
418.457
417.227
416.054
414.931
413.863
412.84
439.001
436.772
434.655
432.645
430.735
428.919
427.192
425.549
423.984
422.494
421.073
419.72
418.428
417.197
416.02
414.899
413.826
412.805
439
436.769
434.65
432.638
430.726
428.908
427.179
425.534
423.967
422.475
421.052
419.697
418.403
417.169
415.991
414.868
413.794
412.771
439
436.771
434.654
432.642
430.731
428.913
427.185
425.539
423.972
422.479
421.057
419.7
418.406
417.172
415.993
414.869
413.794
412.77
439
436.773
434.655
432.647
430.735
428.92
427.19
425.549
423.982
422.494
421.072
419.718
418.424
417.191
416.012
414.887
413.812
412.786
439.004
436.772
434.654
432.657
430.746
428.943
427.236
425.631
424.112
422.658
421.27
419.925
418.636
417.389
416.202
415.052
413.97
412.918
439.026
436.735
434.611
432.777
430.998
429.601
428.326
427.314
426.362
425.253
424.085
422.75
421.397
419.981
418.628
417.191
416.012
414.704
438.873
435.881
435.267
435.224
435.622
438.295
440.361
444.129
447.669
448.119
448.2
447.082
445.447
443.361
440.901
437.669
437.584
434.364
437.993
437.368
441.841
459.728
470.668
496.747
514.927
537.607
561.336
573.002
584.695
596.408
600.613
598.589
598.637
601.026
591.578
575.963
437.059
456.394
476.367
536.111
615.532
751.224
834.405
937.386
1026.81
1060.54
1079.41
1096.1
1107.43
1086.22
1059.25
1051.82
1017.61
956.103
417.813
665.714
708.293
1155.64
1971.56
2300.04
2221.54
2785.42
2792.04
3028.37
3175.52
3020.23
2765.37
2447.63
2145.66
1903.4
1797.67
1799
282.102
878.7
982.134
3097.71
7207.94
7447.59
6958.81
9246.15
8474.31
9256.09
9134.38
8263.6
7324.01
6111.54
5263.05
4572.64
4415.12
4168.04
0.382101
1002.6
2653.5
4848.36
6068.91
5935.71
7886.25
10281.1
9640.45
9585.86
9557.6
8863.82
9663.24
8900.84
9321.93
8702.22
8319.91
8225.05
0.412176
7741.11
10822.7
11311.6
14098
13697.2
13214.9
12638.2
12297.7
12090.2
12483.1
12673.9
12533.8
12306.3
12148.9
12005.2
11905.8
11804.1
18117.5
23619
25551.6
26514.5
26798.3
26698
26514
26019.6
25605.7
25216.8
24865.7
24507.3
24169.9
23897.4
23680.4
23517.5
23380
23276.4
11463.2
2514.24
2516.41
2518.61
2520.83
2523.07
2525.32
2527.6
2529.9
2532.22
2534.57
2536.93
2539.31
2541.72
2544.15
2546.6
2549.08
2551.57
2554.09
2556.64
2559.2
2561.79
2564.41
2567.05
2569.71
2572.4
2575.12
2577.86
2580.62
2583.41
2586.23
2589.08
2591.95
2594.85
2597.77
2600.73
2603.71
2606.72
2609.76
2612.82
2615.92
2619.05
2622.2
2625.39
2628.61
2631.86
2635.14
2638.45
2641.79
2645.17
2648.58
2652.02
2655.5
2659.01
2662.55
3190.35
3288.93
3360.24
3452.57
3427.94
3272.78
3223.29
3336.79
3473.56
3289.16
3455.33
3525.51
3610.61
3685.37
3762.51
3832.25
3903.24
3969.35
4035.64
4098.6
4161.12
4221.25
4280.58
4338.14
4394.74
4449.95
4504.1
4557.13
4609.05
4660.06
4709.94
4759.02
4806.93
4854.02
4899.97
4945.05
4989.17
5032.39
5074.61
5115.85
5156.01
5195.09
5233.04
5269.96
5305.98
5341.57
5376.19
5410.16
5443.4
5475.98
5507.81
5538.94
5569.26
5598.86
5627.57
5655.55
5682.61
5708.9
5734.24
5758.78
5782.33
5805.04
5826.75
5847.58
5867.38
5886.25
5904.11
5921.01
5936.88
5951.74
5965.53
5978.23
5989.76
5999.97
6008.62
6015.48
6023.5
6030.5
6036.83
6042.43
6047.61
6049.96
6052.44
6053.55
6053.6
6052.34
6050.04
6046.95
6042.94
6038.08
6032.38
6025.99
6018.46
6010.52
6001.33
5991.91
5981.11
5970.28
5957.95
5945.84
5932.17
5918.98
5904.21
5890.12
5874.5
5859.49
5843.53
5827.69
5811.62
5795.45
5779.23
5763
5746.83
5730.8
5714.97
5699.38
5684.07
5668.97
5654.02
5638.82
5622.74
5604.72
5582.28
5550.61
5433.35
11463.2
1990.78
1020.9
867.06
769.741
633.611
600.599
605.213
601.692
593.348
575.576
555.079
533.755
515.133
500.007
489.257
483.241
484.284
489.934
504.156
553.442
621.892
717.007
826.272
940.129
1050.04
1141.11
1209.67
1225.62
1204.74
1145.11
1030.76
889.976
737.631
600.919
532.523
481.036
453.418
450.777
462.389
486.166
518.583
550.15
587.086
664.927
812.596
1045.18
1365.28
1670.88
1882.35
2015.04
2058.11
2074.98
2052.12
2015.94
2008.06
1945.41
1882.76
1831.52
1790.07
1779.03
1744.1
1695.36
1694.84
1673.11
1662.36
1661.51
1653.32
1654.83
1653.88
1653.08
1652.12
1657.5
1661.58
1666.73
1672.24
1678.07
1684.26
1690.67
1697.32
1704.15
1711.13
1718.27
1725.5
1732.85
1740.24
1747.7
1755.16
1762.65
1770.1
1777.6
1785.04
1792.42
1799.71
1806.92
1814.08
1821.25
1828.61
1836.41
1845.2
1854.87
1864.02
1873.08
1881.97
1890.63
1899.13
1907.4
1915.47
1923.31
1930.94
1938.35
1945.54
1952.49
1959.22
1965.71
1971.96
1977.98
1983.76
1989.3
1994.59
1999.63
2004.44
2009
2013.32
2017.39
2021.2
2024.76
2028.05
2031.08
2033.85
2036.44
2039.02
2041.27
2043.45
2045.35
2047.13
2048.38
2049.36
2049.4
2048.95
2048.41
2047.65
2046.68
2045.49
2044.12
2042.63
2040.42
2038.9
2035.81
2034.15
2030.52
2028.63
2024.51
2022.39
2017.86
2015.49
2010.69
2008
2003.08
2000
1995.1
1991.36
1987.04
1982.74
1978.43
1974.06
1969.72
1965.36
1961.06
1956.79
1952.6
1948.5
1944.53
1940.64
1936.98
1933.56
1930.51
1928.34
1926.19
1934.11
11463.2
2043.85
796.982
562.359
566.064
619.472
616.209
594.751
550.424
501.018
452.631
409.777
374.517
345.913
322.896
304.848
290.751
280.694
273.186
270.754
273.673
279.566
295.508
323.012
362.296
415.564
477.152
547.114
608.371
656.904
679.521
671.448
645.469
588.927
520.687
447.426
390.814
373.293
389.203
424.587
461.329
530.986
637.778
783.708
978.578
1170.36
1331.44
1465.05
1550.92
1567.09
1545.12
1488.67
1428.32
1366.86
1312.53
1267.37
1227.49
1189.51
1163.53
1142.8
1128.65
1114.73
1104.54
1100.74
1095.04
1090.6
1085.93
1086.28
1084.76
1086.23
1087.71
1089.77
1092.62
1095.55
1098.83
1102.31
1105.99
1109.83
1113.82
1117.93
1122.15
1126.46
1130.85
1135.3
1139.81
1144.35
1148.93
1153.53
1158.13
1162.75
1167.37
1171.98
1176.6
1181.21
1185.83
1190.5
1195.23
1200.09
1205.11
1210.28
1215.44
1220.43
1225.33
1230.12
1234.79
1239.33
1243.74
1248.03
1252.18
1256.19
1260.07
1263.8
1267.4
1270.85
1274.15
1277.32
1280.33
1283.2
1285.91
1288.48
1290.89
1293.16
1295.28
1297.25
1299.07
1300.73
1302.25
1303.61
1304.83
1305.91
1306.87
1307.72
1308.4
1308.98
1309.39
1309.66
1309.7
1309.56
1309.15
1308.57
1307.87
1307.04
1306.07
1304.97
1303.75
1302.38
1300.84
1299.3
1297.42
1295.7
1293.55
1291.66
1289.25
1287.21
1284.57
1282.36
1279.53
1277.17
1274.21
1271.66
1268.62
1265.85
1262.9
1259.94
1256.96
1253.95
1250.94
1247.93
1244.93
1241.96
1239.03
1236.16
1233.38
1230.72
1228.26
1226.11
1224.45
1223.89
1224.81
1234.44
11463.2
2007.37
868.953
802.232
819.244
767.413
672.264
584.243
501.402
433.99
382.06
341.062
308.064
281.95
261.424
245.564
233.274
223.966
217.055
212.338
210.119
210.597
213.197
218.289
229.257
247.284
272.558
306.98
345.401
384.709
418.447
443.252
446.869
439.301
415.258
386.526
408.469
490.985
583.478
648.889
718.45
811.577
943.871
1074.71
1159.76
1229.55
1276.99
1292.59
1236.4
1191.83
1134.82
1084.44
1038.45
1000.22
968.755
943.461
923.192
905.99
894.158
885.037
878.535
874.331
868.822
867.702
866.225
865.254
864.303
865.491
866.697
868.607
870.726
873.144
875.831
878.68
881.715
884.896
888.208
891.636
895.165
898.782
902.476
906.234
910.048
913.906
917.8
921.721
925.662
929.615
933.579
937.54
941.505
945.468
949.43
953.392
957.359
961.338
965.335
969.354
973.386
977.392
981.327
985.163
988.916
992.575
996.136
999.597
1002.95
1006.2
1009.35
1012.38
1015.3
1018.11
1020.8
1023.38
1025.84
1028.17
1030.39
1032.49
1034.46
1036.3
1038.03
1039.63
1041.11
1042.46
1043.69
1044.79
1045.77
1046.63
1047.36
1047.97
1048.47
1048.85
1049.09
1049.22
1049.22
1049.09
1048.8
1048.37
1047.78
1047.07
1046.24
1045.3
1044.24
1043.06
1041.78
1040.37
1038.85
1037.24
1035.48
1033.69
1031.72
1029.75
1027.6
1025.47
1023.14
1020.86
1018.38
1015.96
1013.35
1010.81
1008.11
1005.44
1002.71
999.942
997.16
994.359
991.553
988.742
985.942
983.159
980.412
977.715
975.096
972.59
970.269
968.233
966.629
965.956
966.737
972.628
11463.2
2098.88
1225.63
1117.38
939.045
770.589
617.354
496.842
409.969
348.615
304.186
270.835
246.106
227.842
214.124
203.649
195.63
189.575
185.078
181.981
180.147
180.129
181.052
183.172
187.847
195.704
207.584
225.388
248.512
274.511
300.11
325.851
338.117
346.164
390.322
466.424
587.625
672.594
745.04
822.368
901.209
969.634
1027.69
1074.01
1101.35
1107.28
1062.89
1012.41
965.781
926.38
887.286
857.042
830.574
809.595
792.593
779.219
768.924
760.882
755.361
751.764
748.717
747.607
746.309
746.595
747.313
748.392
749.831
751.843
754.062
756.573
759.272
762.161
765.218
768.415
771.745
775.191
778.741
782.381
786.101
789.888
793.733
797.624
801.553
805.51
809.487
813.477
817.472
821.467
825.455
829.435
833.397
837.347
841.281
845.197
849.094
852.969
856.821
860.639
864.416
868.13
871.769
875.322
878.794
882.177
885.471
888.671
891.776
894.781
897.688
900.494
903.196
905.791
908.278
910.655
912.921
915.074
917.112
919.033
920.837
922.523
924.089
925.536
926.864
928.07
929.155
930.117
930.957
931.675
932.271
932.747
933.102
933.334
933.415
933.378
933.224
932.936
932.507
931.947
931.253
930.437
929.504
928.452
927.283
925.997
924.602
923.09
921.473
919.749
917.914
915.989
913.954
911.845
909.628
907.351
904.966
902.535
900.001
897.433
894.77
892.084
889.316
886.527
883.693
880.83
877.944
875.041
872.128
869.212
866.302
863.409
860.546
857.732
854.996
852.374
849.916
847.707
845.866
844.74
844.841
847.754
11463.2
2575.83
1628.69
1215.45
908.219
659.903
497.657
393.672
324.896
279.56
248.99
227.495
211.536
199.214
189.522
181.813
175.648
170.859
167.266
164.823
163.479
163.528
164.301
166.178
169.759
175.296
183.289
194.742
210.143
229.077
251.317
280.622
331.094
402.96
523.555
638.286
718.728
787.666
847.722
892.099
928.217
958.781
973.752
972.157
933.958
898.666
859.096
823.663
792.354
766.586
743.718
725.812
710.672
698.801
689.506
682.446
677.341
673.771
671.579
670.843
670.674
671.277
672.315
674.047
676.071
678.402
681.009
683.889
686.958
690.214
693.626
697.186
700.88
704.695
708.62
712.642
716.75
720.932
725.175
729.468
733.8
738.159
742.538
746.925
751.313
755.694
760.061
764.407
768.73
773.019
777.276
781.5
785.687
789.836
793.942
798.002
802.007
805.955
809.839
813.648
817.375
821.018
824.575
828.043
831.42
834.702
837.889
840.977
843.964
846.849
849.629
852.301
854.864
857.315
859.653
861.875
863.979
865.962
867.825
869.566
871.183
872.674
874.04
875.278
876.388
877.368
878.219
878.939
879.529
879.989
880.32
880.496
880.533
880.434
880.209
879.845
879.339
878.696
877.917
877.007
875.971
874.808
873.519
872.105
870.572
868.919
867.151
865.267
863.27
861.167
858.958
856.654
854.252
851.764
849.183
846.527
843.785
840.981
838.102
835.172
832.179
829.146
826.07
822.963
819.83
816.678
813.513
810.344
807.18
804.031
800.911
797.838
794.836
791.937
789.186
786.649
784.419
782.734
781.934
782.818
11463.2
3204.78
1765.11
1142.57
742.415
515.194
387.592
316.574
274.119
245.789
225.211
209.328
196.725
186.487
178.005
171.007
165.295
160.846
157.538
155.379
154.366
154.544
155.52
157.787
161.697
167.601
176.281
189.038
207.457
232.554
270.663
334.684
438.899
558.739
652.949
724.432
781.843
821.88
851.07
871.665
879.829
869.768
841.258
813.479
782.067
753.886
726.65
703.615
683.949
667.726
653.96
642.946
634.05
627.244
622.158
618.6
616.631
615.923
616.111
617.114
618.652
620.738
623.26
626.174
629.361
632.787
636.422
640.248
644.236
648.374
652.648
657.049
661.568
666.193
670.915
675.719
680.593
685.523
690.497
695.501
700.523
705.552
710.576
715.588
720.577
725.537
730.459
735.337
740.166
744.941
749.658
754.32
758.924
763.469
767.949
772.365
776.71
780.983
785.176
789.282
793.298
797.223
801.053
804.789
808.426
811.963
815.398
818.73
821.956
825.073
828.079
830.972
833.749
836.408
838.946
841.361
843.649
845.807
847.831
849.721
851.476
853.095
854.577
855.921
857.124
858.186
859.107
859.884
860.518
861.009
861.355
861.525
861.555
861.431
861.168
860.754
860.19
859.477
858.617
857.615
856.474
855.193
853.775
852.219
850.523
848.691
846.729
844.64
842.428
840.096
837.649
835.093
832.433
829.673
826.814
823.866
820.831
817.718
814.531
811.28
807.968
804.605
801.198
797.754
794.281
790.787
787.278
783.762
780.25
776.752
773.283
769.86
766.503
763.242
760.113
757.169
754.481
752.214
750.543
749.869
11463.2
3506.26
1696.03
922.067
568.61
404.361
321.824
274.834
245.106
224.63
209.485
197.684
187.886
179.458
172.106
165.8
160.509
156.312
153.318
151.661
151.353
152.314
154.681
158.477
163.996
172.486
185.095
205.417
238.525
290.909
378.267
484.63
575.674
645.941
704.117
748.313
781.367
800.647
807.229
793.566
771.059
747.342
722.559
699.725
677.506
657.693
639.804
624.79
612.089
601.533
592.781
585.892
580.668
576.98
574.865
574.073
574.243
575.324
577.101
579.523
582.455
585.819
589.548
593.584
597.864
602.354
607.03
611.873
616.866
621.999
627.26
632.639
638.128
643.714
649.387
655.131
660.93
666.768
672.629
678.498
684.362
690.207
696.023
701.8
707.528
713.202
718.81
724.347
729.806
735.182
740.475
745.686
750.815
755.86
760.82
765.694
770.481
775.173
779.766
784.255
788.641
792.921
797.095
801.161
805.118
808.964
812.698
816.319
819.824
823.211
826.478
829.622
832.64
835.531
838.29
840.916
843.405
845.754
847.96
850.022
851.937
853.704
855.319
856.782
858.09
859.242
860.238
861.074
861.752
862.27
862.624
862.783
862.791
862.629
862.31
861.825
861.175
860.361
859.385
858.251
856.961
855.518
853.922
852.176
850.284
848.244
846.062
843.741
841.284
838.695
835.981
833.146
830.196
827.135
823.968
820.7
817.339
813.891
810.364
806.765
803.101
799.379
795.609
791.797
787.954
784.086
780.2
776.306
772.415
768.538
764.689
760.884
757.143
753.492
749.962
746.595
743.444
740.63
738.192
736.216
11463.2
3525.91
1416.14
720.7
463.163
351.609
294.12
259.44
236.469
219.903
206.751
195.821
186.447
178.304
171.215
165.238
160.45
157.093
155.104
154.519
155.39
158.025
162.917
170.312
182.125
200.884
229.072
275.754
346.782
431.363
508.11
573.01
626.865
670.534
706.037
731.57
741.228
733.333
715.399
695.119
674.352
655.141
637.186
620.757
605.427
591.744
579.702
569.498
560.928
553.976
548.524
544.522
541.958
540.828
540.701
541.722
543.463
545.965
549.104
552.796
556.953
561.505
566.393
571.563
576.972
582.589
588.392
594.365
600.495
606.764
613.161
619.672
626.285
632.985
639.766
646.607
653.484
660.377
667.268
674.14
680.977
687.765
694.493
701.148
707.718
714.191
720.571
726.854
733.03
739.095
745.047
750.89
756.625
762.25
767.764
773.163
778.444
783.606
788.648
793.569
798.368
803.046
807.602
812.036
816.347
820.534
824.596
828.533
832.343
836.023
839.572
842.987
846.265
849.404
852.4
855.25
857.952
860.501
862.895
865.129
867.203
869.113
870.856
872.43
873.834
875.066
876.123
877.005
877.709
878.236
878.575
878.709
878.667
878.448
878.046
877.461
876.693
875.744
874.616
873.312
871.835
870.187
868.37
866.387
864.24
861.933
859.468
856.849
854.081
851.167
848.113
844.925
841.611
838.173
834.618
830.953
827.185
823.323
819.374
815.346
811.247
807.084
802.866
798.604
794.306
789.978
785.631
781.275
776.921
772.582
768.271
764.005
759.802
755.685
751.679
747.822
744.151
740.757
737.656
734.654
11463.2
3192.4
1135.31
588.195
403.405
321.402
277.89
251.819
233.339
219.33
208.163
198.773
190.526
183.274
177.027
172.037
168.476
166.808
166.847
169.155
173.651
181.638
194.168
212.049
239.923
280.727
335.052
397.104
457.246
512.11
559.495
599.841
633.741
662.145
676.247
677.961
666.889
651.538
634.018
617.394
602.253
588.613
576.026
564.347
553.569
543.96
535.629
528.682
523.066
518.758
515.699
514.05
513.553
514.128
515.621
517.981
521.098
524.9
529.303
534.229
539.612
545.39
551.515
557.935
564.605
571.495
578.582
585.857
593.319
600.924
608.655
616.493
624.416
632.395
640.377
648.375
656.397
664.426
672.434
680.399
688.305
696.135
703.878
711.522
719.059
726.484
733.779
740.93
747.929
754.77
761.455
767.989
774.377
780.618
786.711
792.655
798.451
804.1
809.604
814.963
820.18
825.254
830.188
834.98
839.632
844.144
848.515
852.746
856.836
860.784
864.587
868.243
871.748
875.101
878.299
881.337
884.213
886.924
889.465
891.832
894.023
896.033
897.861
899.503
900.958
902.223
903.296
904.176
904.86
905.348
905.623
905.687
905.552
905.218
904.684
903.948
903.01
901.873
900.539
899.011
897.291
895.383
893.289
891.012
888.556
885.923
883.117
880.144
877.005
873.707
870.256
866.657
862.919
859.045
855.044
850.923
846.691
842.357
837.929
833.416
828.825
824.165
819.445
814.675
809.864
805.022
800.158
795.284
790.413
785.558
780.733
775.952
771.235
766.601
762.074
757.683
753.457
749.468
745.701
741.739
11463.2
2704.58
929.352
522.978
379.329
311.907
275.211
252.566
237.634
226.505
217.392
209.571
202.782
197.179
192.923
190.752
190.533
193.006
198.057
206.447
218.456
236.094
260.569
293.437
333.149
376.813
421.592
464.527
503.736
538.755
569.138
596.33
615.14
621.725
618.744
610.474
597.647
584.086
571.126
559.508
549.093
539.56
530.661
522.35
514.76
508.086
502.465
497.955
494.57
492.364
491.434
491.452
492.615
494.648
497.556
501.279
505.745
510.885
516.624
522.893
529.63
536.787
544.371
552.281
560.468
568.891
577.499
586.216
595.047
604.039
613.179
622.448
631.821
641.268
650.779
660.306
669.812
679.279
688.656
697.921
707.06
716.061
724.919
733.625
742.17
750.542
758.728
766.722
774.517
782.11
789.498
796.694
803.705
810.532
817.176
823.639
829.92
836.023
841.949
847.704
853.288
858.707
863.961
869.052
873.981
878.75
883.36
887.812
892.108
896.245
900.223
904.04
907.692
911.177
914.491
917.634
920.6
923.387
925.99
928.405
930.627
932.653
934.481
936.107
937.528
938.744
939.75
940.545
941.127
941.492
941.629
941.542
941.235
940.71
939.966
939.002
937.819
936.419
934.805
932.98
930.946
928.706
926.264
923.624
920.788
917.761
914.547
911.151
907.577
903.83
899.917
895.844
891.619
887.249
882.742
878.107
873.354
868.493
863.532
858.48
853.345
848.135
842.86
837.531
832.156
826.747
821.316
815.876
810.44
805.021
799.634
794.294
789.017
783.823
778.731
773.768
768.956
764.355
759.943
755.102
11463.2
2189.95
795.821
477.977
362.149
308.062
278.419
260.694
248.814
240.062
233.137
227.653
223.548
221.603
221.531
224.361
230.059
238.6
249.485
263.98
283.24
307.022
334.584
364.956
396.702
428.526
459.194
487.81
513.638
537.435
557.768
568.105
570.555
568.186
561.365
552.301
542.301
532.773
524.113
516.315
509.176
502.496
496.229
490.431
485.271
480.898
477.443
474.956
473.625
473.306
474.064
475.767
478.429
481.982
486.385
491.596
497.596
504.314
511.66
519.562
527.939
536.686
545.705
555.094
564.837
574.906
585.268
595.918
606.817
617.897
629.107
640.414
651.788
663.158
674.484
685.716
696.805
707.696
718.385
728.864
739.132
749.198
759.07
768.746
778.218
787.472
796.491
805.267
813.793
822.062
830.08
837.857
845.406
852.731
859.834
866.718
873.385
879.837
886.079
892.117
897.956
903.6
909.054
914.32
919.4
924.297
929.013
933.552
937.917
942.107
946.123
949.962
953.621
957.099
960.392
963.498
966.414
969.139
971.667
973.993
976.112
978.019
979.713
981.192
982.451
983.487
984.3
984.888
985.243
985.37
985.254
984.9
984.306
983.479
982.418
981.121
979.59
977.828
975.835
973.616
971.174
968.512
965.633
962.542
959.242
955.738
952.035
948.139
944.054
939.786
935.341
930.726
925.947
921.016
915.942
910.736
905.407
899.964
894.417
888.775
883.045
877.236
871.358
865.421
859.435
853.414
847.371
841.32
835.277
829.253
823.264
817.323
811.447
805.654
799.962
794.394
788.97
783.74
778.695
773.034
11463.2
1957.52
762.671
470.541
362.819
314.111
288.799
274.029
264.537
258.097
253.719
251.445
250.949
252.723
256.947
263.777
273.107
284.617
298.6
315.376
334.53
355.531
377.792
400.732
423.685
446.022
467.062
487.226
505.933
518.649
524.116
525.511
524.149
519.841
513.799
507.139
500.522
494.366
488.734
483.551
478.734
474.23
470.107
466.466
463.466
461.215
459.908
459.544
460.166
461.789
464.492
468.095
472.612
477.996
484.199
491.132
498.611
506.782
515.655
525.192
535.343
546.087
557.421
569.264
581.577
594.327
607.447
620.89
634.61
648.467
662.328
676.088
689.66
703.023
716.149
729.017
741.587
753.799
765.635
777.101
788.233
799.082
809.697
820.1
830.277
840.2
849.838
859.179
868.219
876.955
885.389
893.537
901.414
909.026
916.381
923.478
930.322
936.916
943.266
949.379
955.264
960.927
966.372
971.604
976.625
981.44
986.052
990.466
994.689
998.723
1002.57
1006.22
1009.68
1012.94
1016.01
1018.87
1021.53
1023.99
1026.25
1028.29
1030.11
1031.71
1033.08
1034.23
1035.14
1035.82
1036.26
1036.47
1036.43
1036.16
1035.63
1034.84
1033.81
1032.54
1031.02
1029.25
1027.24
1024.98
1022.48
1019.75
1016.78
1013.58
1010.15
1006.5
1002.64
998.559
994.272
989.784
985.101
980.228
975.173
969.942
964.538
958.979
953.277
947.44
941.479
935.401
929.216
922.933
916.56
910.106
903.58
896.99
890.351
883.677
876.984
870.287
863.6
856.937
850.311
843.736
837.228
830.802
824.479
818.281
812.224
806.351
800.682
794.245
11463.2
1879.85
729.886
464.166
368.955
325.699
303.381
290.521
282.548
277.972
276.08
275.937
278.117
282.211
288.362
296.47
306.382
317.976
331.334
346.07
361.837
378.306
395.114
411.869
428.393
444.834
460.433
473.152
480.952
484.911
486.594
486.713
484.733
481.451
477.512
473.425
469.473
465.818
462.491
459.481
456.818
454.556
452.857
451.947
451.744
452.189
453.601
455.772
458.747
462.47
466.718
471.871
477.979
485.034
493.018
501.909
511.752
522.51
534.156
546.643
559.926
573.977
588.75
604.164
620.168
636.755
653.718
670.904
688.178
705.402
722.351
738.863
754.821
770.162
784.872
799.045
812.705
825.726
838.079
849.799
861.012
871.863
882.512
893.025
903.368
913.467
923.234
932.657
941.751
950.501
958.917
967.013
974.805
982.304
989.514
996.442
1003.09
1009.46
1015.56
1021.4
1026.99
1032.33
1037.44
1042.31
1046.96
1051.37
1055.57
1059.55
1063.32
1066.9
1070.27
1073.45
1076.41
1079.17
1081.73
1084.07
1086.2
1088.12
1089.84
1091.33
1092.59
1093.62
1094.42
1094.99
1095.31
1095.39
1095.24
1094.85
1094.19
1093.29
1092.14
1090.73
1089.07
1087.16
1084.99
1082.58
1079.91
1077
1073.84
1070.43
1066.79
1062.92
1058.81
1054.48
1049.92
1045.15
1040.17
1034.98
1029.6
1024.03
1018.28
1012.35
1006.25
999.993
993.599
987.074
980.424
973.657
966.783
959.81
952.747
945.603
938.389
931.106
923.776
916.417
909.044
901.672
894.314
886.983
879.692
872.457
865.289
858.205
851.228
844.38
837.676
831.15
824.863
817.687
11463.2
1843.98
728.787
473.153
382.946
342.168
320.997
308.566
300.932
297.211
296.022
296.869
299.8
304.445
310.625
318.246
327.147
337.127
348.053
359.708
371.908
384.395
397.014
409.966
422.336
432.85
441.09
447.39
452.064
454.583
455.715
456.042
455.35
453.933
452.281
450.774
449.994
449.607
449.372
449.612
450.271
451.348
452.818
454.404
456.626
459.77
463.783
468.579
474.151
480.497
487.75
495.969
505.15
515.346
526.615
538.976
552.46
567.068
582.946
599.927
617.9
636.781
656.46
676.802
697.635
718.716
739.949
761.17
782.225
802.854
822.801
841.887
859.983
876.974
892.83
907.566
921.238
933.816
945.308
955.733
965.454
974.767
984.103
993.631
1003.21
1012.66
1021.85
1030.73
1039.25
1047.4
1055.17
1062.6
1069.7
1076.49
1082.97
1089.16
1095.05
1100.66
1105.99
1111.05
1115.85
1120.41
1124.72
1128.79
1132.62
1136.21
1139.57
1142.71
1145.63
1148.36
1150.88
1153.2
1155.3
1157.19
1158.87
1160.32
1161.56
1162.61
1163.45
1164.05
1164.42
1164.55
1164.43
1164.12
1163.54
1162.71
1161.64
1160.33
1158.77
1156.96
1154.9
1152.6
1150.04
1147.23
1144.17
1140.86
1137.3
1133.5
1129.46
1125.18
1120.66
1115.92
1110.94
1105.74
1100.33
1094.7
1088.87
1082.84
1076.62
1070.22
1063.64
1056.91
1050.03
1043.02
1035.87
1028.6
1021.21
1013.7
1006.08
998.37
990.572
982.697
974.757
966.749
958.702
950.634
942.559
934.491
926.441
918.421
910.445
902.529
894.684
886.929
879.286
871.78
864.425
857.24
850.34
842.464
11463.7
1809.72
729.467
486.359
398.742
358.942
338.501
325.84
317.66
313.728
312.347
312.719
315.229
319.22
324.51
330.887
338.241
346.335
355.128
364.431
374.247
383.87
393.085
401.638
409.449
416.614
422.866
428.124
432.419
435.794
438.487
440.735
442.612
444.407
446.331
448.598
450.519
452.948
456.046
459.926
464.631
470.168
476.58
483.919
492.227
501.472
511.149
521.168
531.53
542.226
553.367
565.26
578.055
591.927
607.256
623.86
641.64
660.494
680.382
701.386
723.454
746.469
770.257
794.622
819.323
844.114
868.759
893.037
916.657
939.406
961.149
981.765
1001.12
1019.11
1035.6
1050.21
1063.25
1074.95
1085.51
1095.07
1103.83
1111.99
1119.82
1127.55
1135.66
1143.67
1151.45
1158.88
1165.9
1172.5
1178.69
1184.54
1190.06
1195.27
1200.2
1204.84
1209.21
1213.31
1217.16
1220.75
1224.12
1227.25
1230.17
1232.85
1235.31
1237.54
1239.53
1241.3
1242.87
1244.25
1245.44
1246.43
1247.2
1247.75
1248.09
1248.19
1248.1
1247.84
1247.36
1246.65
1245.71
1244.53
1243.12
1241.48
1239.61
1237.49
1235.15
1232.57
1229.76
1226.71
1223.43
1219.91
1216.16
1212.18
1207.96
1203.51
1198.82
1193.91
1188.77
1183.41
1177.83
1172.04
1166.03
1159.81
1153.39
1146.78
1139.97
1132.98
1125.81
1118.48
1110.98
1103.34
1095.59
1087.71
1079.7
1071.57
1063.33
1054.98
1046.52
1037.98
1029.36
1020.67
1011.93
1003.16
994.369
985.568
976.766
967.973
959.204
950.47
941.787
933.17
924.629
916.187
907.87
899.697
891.682
883.832
876.317
867.774
11462.8
1802.58
739.889
497.861
412.475
374.444
354.292
341.192
332.54
328.55
326.961
326.789
329.283
333.193
338.388
344.581
351.708
359.467
367.6
375.618
383.453
391.288
399.181
406.616
413.565
419.97
425.738
430.852
435.373
439.453
443.277
447.115
451.164
455.785
461.31
468.162
476.518
486.534
498.38
512.154
527.82
545.177
563.914
583.565
603.463
622.648
640.969
658.229
674.43
689.682
704.318
718.698
733.051
747.966
763.389
779.833
797.484
816.456
836.861
858.668
881.795
906.058
931.215
957.006
983.151
1009.29
1035.14
1060.35
1084.68
1107.8
1129.58
1149.83
1168.55
1185.67
1201.23
1214.93
1227.09
1237.93
1247.62
1256.45
1264.47
1271.87
1278.68
1285.18
1291.21
1296.68
1301.63
1306.11
1310.14
1313.74
1317.01
1320.1
1322.93
1325.54
1327.94
1330.14
1332.16
1333.98
1335.64
1337.12
1338.44
1339.61
1340.6
1341.42
1342.05
1342.49
1342.72
1342.73
1342.58
1342.31
1341.85
1341.18
1340.32
1339.25
1337.98
1336.51
1334.84
1333
1330.95
1328.7
1326.23
1323.54
1320.64
1317.53
1314.2
1310.66
1306.91
1302.95
1298.78
1294.41
1289.84
1285.06
1280.08
1274.89
1269.5
1263.91
1258.11
1252.12
1245.92
1239.54
1232.96
1226.18
1219.22
1212.08
1204.75
1197.25
1189.58
1181.75
1173.75
1165.6
1157.29
1148.85
1140.28
1131.58
1122.76
1113.82
1104.77
1095.62
1086.38
1077.05
1067.65
1058.19
1048.67
1039.15
1029.62
1020.08
1010.54
1001.02
991.519
982.063
972.663
963.339
954.119
945.021
936.057
927.245
918.595
910.108
901.995
892.856
11461.8
1794.12
748.561
508.215
425.847
389.628
370.559
358.121
350.907
348.748
348.423
350.475
355.309
361.675
369.78
377.973
386.819
396.174
405.42
413.403
420.465
427.14
433.47
439.317
444.71
449.779
454.698
459.603
464.698
470.274
476.64
484.215
493.401
504.791
518.951
536.438
557.798
583.325
613.163
647.245
685.168
726.141
768.804
811.452
852.23
889.531
922.197
949.668
971.889
989.315
1003.94
1015.53
1024.48
1031.38
1038.4
1046.7
1056.49
1068.31
1082.19
1098.13
1116.22
1136.04
1157.26
1179.58
1202.52
1225.75
1248.74
1271.19
1292.66
1312.78
1331.19
1347.91
1362.83
1376.09
1387.99
1398.69
1407.94
1415.81
1422.31
1427.63
1432.21
1436.7
1440.86
1444.41
1446.67
1448.02
1448.77
1449.09
1449.07
1448.62
1448.09
1447.85
1447.31
1446.71
1446.03
1445.29
1444.5
1443.65
1442.77
1441.84
1440.86
1439.81
1438.67
1437.43
1436.08
1434.59
1432.96
1431.17
1429.28
1427.25
1425.08
1422.75
1420.25
1417.58
1414.73
1411.7
1408.51
1405.15
1401.61
1397.9
1393.99
1389.9