/*--------------------------------*- C++ -*----------------------------------*\
  =========                 |
  \\      /  F ield         | OpenFOAM: The Open Source CFD Toolbox
   \\    /   O peration     | Website:  https://openfoam.org
    \\  /    A nd           | Version:  13
     \\/     M anipulation  |
\*---------------------------------------------------------------------------*/
FoamFile
{
    format      ascii;
    class       volScalarField;
    location    "1900";
    object      p;
}
// * * * * * * * * * * * * * * * * * * * * * * * * * * * * * * * * * * * * * //

dimensions      [0 2 -2 0 0 0 0];

internalField   nonuniform List<scalar> 
12225
(
-4.23467
-5.10388
-5.48864
-5.62069
-5.75818
-5.91274
-6.04789
-6.15889
-6.25129
-6.33321
-6.41047
-6.47872
-6.53904
-6.59678
-6.65771
-6.72289
-6.79425
-6.88694
-4.49328
-5.13428
-5.45709
-5.5817
-5.71927
-5.87629
-6.01378
-6.12431
-6.21838
-6.30151
-6.38034
-6.45711
-6.52409
-6.58242
-6.6373
-6.6991
-6.76622
-6.81574
-4.70641
-5.13537
-5.44357
-5.59335
-5.73286
-5.88413
-6.01877
-6.12814
-6.22098
-6.30367
-6.38228
-6.4573
-6.52255
-6.57891
-6.63097
-6.68644
-6.74244
-6.78416
-4.84642
-5.15293
-5.44601
-5.60618
-5.73807
-5.87831
-6.00781
-6.11579
-6.20817
-6.29111
-6.36895
-6.44192
-6.50663
-6.56358
-6.6164
-6.66955
-6.7211
-6.76208
-4.95828
-5.19391
-5.45684
-5.61623
-5.74289
-5.87518
-6.0008
-6.10791
-6.20015
-6.28316
-6.36007
-6.4313
-6.49527
-6.55247
-6.60543
-6.65667
-6.70494
-6.74487
-5.06181
-5.24525
-5.46824
-5.62679
-5.75071
-5.87581
-5.99626
-6.1009
-6.19168
-6.27356
-6.34903
-6.41861
-6.48172
-6.53891
-6.59182
-6.64185
-6.68822
-6.72799
-5.15807
-5.29725
-5.48983
-5.64273
-5.76215
-5.87959
-5.99384
-6.09515
-6.18412
-6.2647
-6.33885
-6.40716
-6.46958
-6.52663
-6.57935
-6.62847
-6.67363
-6.71338
-5.24554
-5.35246
-5.5196
-5.66129
-5.77476
-5.88505
-5.99314
-6.09092
-6.17788
-6.25676
-6.3293
-6.39622
-6.45772
-6.51418
-6.56626
-6.61436
-6.6585
-6.69796
-5.32483
-5.40821
-5.55049
-5.68019
-5.78825
-5.89238
-5.99461
-6.08863
-6.17307
-6.24982
-6.32055
-6.38597
-6.44627
-6.50177
-6.55287
-6.59991
-6.64314
-6.6823
-5.39704
-5.46207
-5.58134
-5.69977
-5.80262
-5.90096
-5.99744
-6.08736
-6.16891
-6.24338
-6.31222
-6.37596
-6.4348
-6.48901
-6.53892
-6.58492
-6.62731
-6.66587
-5.46243
-5.51319
-5.61266
-5.71978
-5.8168
-5.90945
-6.00031
-6.086
-6.1646
-6.23679
-6.30366
-6.36561
-6.42285
-6.47565
-6.52437
-6.56933
-6.61078
-6.64869
-5.51651
-5.55735
-5.64171
-5.73844
-5.82958
-5.91701
-6.00282
-6.08458
-6.16041
-6.23046
-6.29546
-6.35574
-6.41149
-6.46303
-6.51061
-6.55456
-6.59514
-6.63225
-5.56506
-5.59857
-5.67029
-5.75709
-5.84212
-5.92441
-6.00536
-6.08324
-6.15624
-6.2241
-6.2872
-6.34578
-6.40008
-6.45029
-6.49675
-6.53964
-6.5793
-6.6156
-5.61438
-5.6418
-5.70177
-5.77811
-5.85613
-5.93274
-6.00843
-6.08195
-6.15165
-6.2169
-6.27776
-6.3344
-6.38697
-6.43571
-6.4808
-6.52251
-6.56104
-6.59639
-5.66262
-5.68494
-5.73461
-5.80072
-5.87117
-5.94176
-6.01197
-6.08082
-6.14678
-6.20906
-6.26737
-6.32184
-6.37248
-6.41953
-6.46311
-6.50345
-6.54072
-6.57492
-5.70685
-5.72513
-5.76635
-5.82321
-5.88617
-5.95068
-6.01551
-6.07959
-6.14164
-6.20064
-6.25628
-6.30833
-6.35697
-6.40215
-6.44414
-6.48294
-6.5189
-6.55186
-5.74308
-5.75832
-5.79317
-5.84256
-5.89893
-5.95794
-6.01787
-6.07758
-6.13584
-6.19169
-6.24458
-6.29433
-6.34086
-6.38423
-6.4245
-6.46181
-6.49629
-6.52805
-5.76514
-5.7785
-5.80938
-5.85394
-5.90577
-5.9608
-6.01714
-6.07355
-6.12885
-6.18212
-6.23272
-6.28045
-6.32513
-6.36682
-6.40552
-6.44138
-6.4745
-6.50506
-5.76318
-5.77613
-5.80624
-5.84986
-5.9007
-5.9547
-6.00996
-6.06526
-6.11942
-6.17152
-6.22095
-6.26749
-6.31099
-6.35148
-6.38901
-6.42371
-6.45573
-6.48528
-5.72888
-5.74376
-5.77786
-5.8263
-5.88129
-5.93865
-5.9966
-6.0542
-6.11002
-6.16331
-6.21341
-6.2603
-6.3038
-6.34405
-6.38111
-6.4152
-6.4465
-6.47532
-5.68001
-5.6982
-5.7394
-5.79587
-5.85766
-5.92028
-5.98288
-6.04429
-6.10326
-6.15872
-6.21046
-6.25836
-6.30253
-6.34303
-6.38006
-6.41388
-6.4447
-6.47291
-5.61729
-5.64109
-5.6934
-5.76138
-5.83175
-5.90108
-5.96957
-6.03616
-6.09908
-6.15747
-6.21128
-6.26061
-6.30561
-6.34647
-6.38355
-6.41719
-6.44768
-6.47545
-5.54276
-5.57531
-5.64379
-5.72598
-5.80568
-5.8823
-5.95767
-6.03007
-6.09738
-6.15902
-6.21523
-6.26629
-6.31229
-6.3535
-6.39045
-6.42367
-6.45358
-6.48068
-5.45716
-5.50284
-5.59319
-5.69098
-5.77937
-5.86365
-5.94673
-6.02528
-6.09693
-6.16184
-6.22058
-6.27349
-6.32071
-6.3626
-6.39963
-6.43246
-6.46168
-6.48798
-5.36075
-5.4254
-5.54398
-5.65664
-5.7517
-5.84361
-5.93523
-6.0205
-6.0967
-6.16503
-6.22642
-6.28099
-6.32919
-6.37157
-6.40877
-6.44127
-6.46965
-6.49496
-5.25449
-5.35101
-5.5027
-5.62788
-5.72747
-5.82635
-5.92554
-6.01681
-6.09725
-6.16909
-6.23352
-6.29016
-6.33933
-6.38219
-6.41951
-6.4517
-6.47941
-6.504
-5.14213
-5.28564
-5.47047
-5.60366
-5.70908
-5.81709
-5.92345
-6.01876
-6.10209
-6.17597
-6.24172
-6.29922
-6.3489
-6.39139
-6.42775
-6.45873
-6.48498
-6.50851
-5.01142
-5.23988
-5.45534
-5.58127
-5.69011
-5.80942
-5.925
-6.02474
-6.11177
-6.18944
-6.25672
-6.31527
-6.36531
-6.40717
-6.44186
-6.47105
-6.49582
-6.51817
-4.81415
-5.22318
-5.47275
-5.57889
-5.68043
-5.80296
-5.92262
-6.02583
-6.11256
-6.18918
-6.25884
-6.32115
-6.37389
-6.41655
-6.45072
-6.47905
-6.50354
-6.52428
-4.5397
-5.14558
-5.45775
-5.57244
-5.68058
-5.81232
-5.94136
-6.05768
-6.1467
-6.21568
-6.28774
-6.35669
-6.41382
-6.45706
-6.48926
-6.51413
-6.53582
-6.55229
-7.35165
-7.35162
-7.35158
-7.35168
-7.35195
-7.35168
-7.34988
-7.34636
-7.34214
-7.33835
-7.33605
-7.33607
-7.3384
-7.34249
-7.34761
-7.35306
-7.35814
-7.36234
-7.36526
-7.36688
-7.36742
-7.3671
-7.36614
-7.36481
-7.3634
-7.36214
-7.3612
-7.3606
-7.36025
-7.35998
-7.35964
-7.35915
-7.35851
-7.35774
-7.35673
-7.35533
-7.35354
-7.35155
-7.34985
-7.34912
-7.34975
-7.3515
-7.3538
-7.35611
-7.35832
-7.3606
-7.3632
-7.3662
-7.36927
-7.37191
-7.37484
-7.38016
-7.39165
-7.41184
-7.4413
-7.48106
-7.53134
-7.59188
-7.66145
-7.73805
-7.81891
-7.90198
-7.98461
-8.06522
-8.14238
-8.21556
-8.28362
-8.34644
-8.4035
-8.45493
-8.50041
-8.54013
-8.5739
-8.60187
-8.62391
-8.64012
-8.65044
-8.65495
-8.65366
-8.64662
-8.63396
-8.61572
-8.59207
-8.56296
-8.52862
-8.48896
-8.44428
-8.3946
-8.34023
-8.28115
-8.21719
-8.14838
-8.07484
-7.99668
-7.91396
-7.82678
-7.7352
-7.63929
-7.53907
-7.43449
-7.3254
-7.21167
-7.09337
-6.97057
-6.84332
-6.71152
-6.5752
-6.43431
-6.28887
-6.13884
-5.98423
-5.82504
-5.66132
-5.49307
-5.32036
-5.14325
-4.9618
-4.77601
-4.58593
-4.39162
-4.19318
-3.99074
-3.78443
-3.57435
-3.36058
-3.14324
-2.9224
-2.69822
-2.47077
-2.24023
-2.00668
-1.77031
-1.5312
-1.28958
-1.04554
-0.799307
-0.551012
-0.300898
-0.0490051
0.20467
0.459935
0.716412
0.973884
1.23214
1.491
1.75022
2.0096
2.26891
2.52791
2.78637
3.04404
3.30069
3.55606
3.80989
4.06194
4.31195
4.55969
4.80493
5.04744
5.28702
5.52348
5.75661
5.98625
6.21222
6.43436
6.65251
6.86653
7.07627
7.28162
7.48246
7.67871
7.87026
8.05704
8.23899
8.41608
8.5883
8.75584
8.91875
9.08014
9.23147
-7.35272
-7.35284
-7.35334
-7.35416
-7.35473
-7.35442
-7.35277
-7.34989
-7.34675
-7.3446
-7.3442
-7.34576
-7.34908
-7.35366
-7.35886
-7.36411
-7.36891
-7.37292
-7.37591
-7.37766
-7.378
-7.377
-7.37492
-7.37216
-7.36915
-7.36632
-7.36398
-7.36223
-7.36101
-7.36009
-7.35932
-7.35865
-7.3581
-7.35756
-7.35686
-7.3558
-7.35436
-7.35285
-7.35187
-7.352
-7.35335
-7.3553
-7.35706
-7.35814
-7.35837
-7.35759
-7.35642
-7.35722
-7.3615
-7.3671
-7.37256
-7.37956
-7.38978
-7.40663
-7.4345
-7.4759
-7.53069
-7.59717
-7.67225
-7.753
-7.8366
-7.92043
-8.00242
-8.08187
-8.15743
-8.22815
-8.2937
-8.35407
-8.40902
-8.45857
-8.50257
-8.54105
-8.57389
-8.60112
-8.62264
-8.63846
-8.64854
-8.65289
-8.65153
-8.64449
-8.63187
-8.61373
-8.59017
-8.56125
-8.5271
-8.48774
-8.44335
-8.39403
-8.34002
-8.28127
-8.2177
-8.14934
-8.07629
-7.99866
-7.9165
-7.82988
-7.73882
-7.64337
-7.54351
-7.43921
-7.33042
-7.21718
-7.09945
-6.97723
-6.85052
-6.71937
-6.58374
-6.44358
-6.29887
-6.14958
-5.99571
-5.83726
-5.67426
-5.50675
-5.33477
-5.15839
-4.97765
-4.79258
-4.60322
-4.40963
-4.21191
-4.01019
-3.80458
-3.59519
-3.38211
-3.16544
-2.94528
-2.72174
-2.49496
-2.26505
-2.03213
-1.79635
-1.55781
-1.3167
-1.07313
-0.827234
-0.57911
-0.328873
-0.0767712
0.176805
0.431696
0.687805
0.944926
1.20287
1.46143
1.7204
1.97956
2.23867
2.49752
2.75585
3.01345
3.27006
3.52543
3.7793
4.03144
4.28158
4.52948
4.77492
5.01767
5.25751
5.49426
5.72772
5.9577
6.18405
6.40658
6.62515
6.83961
7.04982
7.25566
7.45701
7.65378
7.84589
8.03327
8.2159
8.3938
8.56694
8.73565
8.89931
9.06308
9.21399
-7.35398
-7.35397
-7.35414
-7.35444
-7.35475
-7.35476
-7.35442
-7.35417
-7.3546
-7.35619
-7.35905
-7.36304
-7.36784
-7.37305
-7.37822
-7.38302
-7.38713
-7.39037
-7.3926
-7.39375
-7.39374
-7.39258
-7.39035
-7.38719
-7.38327
-7.37883
-7.37415
-7.36953
-7.36527
-7.36157
-7.35857
-7.35626
-7.35447
-7.35294
-7.35148
-7.3501
-7.34903
-7.34878
-7.34993
-7.35247
-7.35537
-7.35691
-7.35632
-7.35449
-7.35301
-7.35225
-7.35188
-7.35355
-7.35974
-7.37075
-7.38646
-7.40735
-7.43372
-7.46677
-7.50786
-7.55744
-7.61494
-7.67926
-7.74852
-7.82095
-7.89486
-7.9688
-8.04149
-8.11218
-8.18008
-8.24454
-8.30505
-8.36133
-8.41306
-8.46005
-8.50209
-8.53905
-8.57075
-8.5971
-8.61799
-8.63334
-8.6431
-8.64724
-8.64575
-8.63866
-8.62602
-8.60791
-8.5844
-8.55559
-8.52158
-8.48244
-8.43828
-8.38928
-8.33558
-8.27719
-8.21401
-8.14611
-8.07359
-7.99652
-7.91497
-7.82896
-7.73854
-7.64372
-7.5445
-7.44088
-7.33286
-7.22047
-7.10366
-6.98243
-6.8567
-6.72652
-6.59183
-6.45263
-6.30886
-6.16053
-6.00762
-5.85016
-5.68813
-5.52161
-5.35061
-5.17521
-4.99544
-4.81135
-4.62297
-4.43038
-4.23366
-4.03293
-3.82831
-3.61989
-3.40778
-3.19206
-2.97286
-2.75025
-2.5244
-2.29539
-2.06338
-1.82845
-1.59078
-1.35048
-1.10773
-0.862635
-0.615337
-0.365928
-0.114623
0.138263
0.392529
0.648035
0.904589
1.162
1.42008
1.67861
1.93737
2.19613
2.45466
2.71273
2.9701
3.22653
3.48177
3.73558
3.98768
4.23785
4.48582
4.73136
4.97426
5.21429
5.45125
5.68495
5.9152
6.14183
6.36467
6.58356
6.79836
7.00891
7.21511
7.41684
7.61399
7.80651
7.99431
8.17734
8.35562
8.52921
8.69869
8.86283
9.02932
9.17607
-7.35465
-7.3544
-7.35406
-7.3539
-7.3544
-7.356
-7.35878
-7.36261
-7.36722
-7.37238
-7.37786
-7.38343
-7.38889
-7.39405
-7.3987
-7.40268
-7.40583
-7.40806
-7.4093
-7.4095
-7.40865
-7.40674
-7.40384
-7.40001
-7.39532
-7.38985
-7.3837
-7.37701
-7.37001
-7.36299
-7.3563
-7.35025
-7.34506
-7.34083
-7.33774
-7.33609
-7.33644
-7.33897
-7.34297
-7.34694
-7.34954
-7.35027
-7.3496
-7.34877
-7.3491
-7.35161
-7.35706
-7.36662
-7.38163
-7.40272
-7.42952
-7.46137
-7.49783
-7.53882
-7.58441
-7.63467
-7.68945
-7.7484
-7.81066
-7.87533
-7.94135
-8.00775
-8.0736
-8.13817
-8.20073
-8.2607
-8.31756
-8.37086
-8.42023
-8.46535
-8.50592
-8.54172
-8.57253
-8.59818
-8.61852
-8.63343
-8.64284
-8.64669
-8.64496
-8.63768
-8.62488
-8.60662
-8.583
-8.55409
-8.52002
-8.48088
-8.43678
-8.38787
-8.33432
-8.27609
-8.21315
-8.14557
-8.07344
-7.99684
-7.9158
-7.83036
-7.74055
-7.64638
-7.54785
-7.44496
-7.33769
-7.22606
-7.11007
-6.98967
-6.86485
-6.73556
-6.60178
-6.46348
-6.32063
-6.17322
-6.02124
-5.8647
-5.70362
-5.53803
-5.36798
-5.19351
-5.01468
-4.83153
-4.64409
-4.45245
-4.25669
-4.05692
-3.85325
-3.64578
-3.43462
-3.21984
-3.00156
-2.77989
-2.55494
-2.32684
-2.0957
-1.86165
-1.62482
-1.38535
-1.14339
-0.89908
-0.652544
-0.40391
-0.153377
0.0988075
0.352432
0.607336
0.863328
1.12023
1.37782
1.63592
1.89427
2.15268
2.4109
2.66871
2.92585
3.18211
3.43723
3.69095
3.94303
4.1932
4.44123
4.68687
4.9299
5.1701
5.40726
5.64118
5.87168
6.09858
6.32171
6.54092
6.75603
6.96692
7.17345
7.37551
7.57301
7.76586
7.95402
8.13744
8.31617
8.49021
8.66024
8.82444
8.99183
9.13239
-7.35616
-7.35572
-7.35518
-7.35556
-7.35811
-7.36295
-7.36932
-7.37642
-7.38365
-7.39065
-7.39718
-7.40319
-7.40859
-7.41335
-7.41736
-7.42057
-7.42288
-7.42422
-7.42456
-7.42386
-7.42211
-7.41931
-7.41549
-7.41069
-7.40496
-7.39833
-7.39085
-7.38254
-7.3735
-7.3639
-7.35409
-7.34459
-7.33607
-7.32926
-7.32499
-7.32383
-7.32571
-7.3295
-7.3337
-7.33738
-7.34014
-7.34212
-7.3442
-7.34763
-7.35387
-7.3641
-7.37893
-7.3984
-7.42239
-7.45067
-7.48292
-7.51876
-7.55802
-7.60064
-7.64663
-7.69599
-7.74854
-7.80405
-7.86197
-7.92173
-7.98263
-8.04401
-8.10515
-8.16543
-8.22419
-8.28088
-8.33497
-8.38597
-8.43345
-8.47702
-8.51634
-8.5511
-8.58104
-8.60593
-8.6256
-8.63989
-8.64872
-8.65201
-8.64975
-8.64194
-8.62863
-8.60989
-8.5858
-8.55647
-8.52201
-8.48254
-8.43818
-8.38908
-8.33537
-8.27708
-8.21413
-8.14663
-8.0747
-7.99836
-7.91767
-7.83264
-7.74331
-7.64968
-7.55176
-7.44951
-7.34295
-7.23202
-7.11675
-6.99708
-6.87302
-6.74449
-6.6115
-6.47397
-6.33191
-6.18527
-6.03408
-5.87832
-5.71804
-5.55324
-5.38399
-5.21031
-5.03227
-4.8499
-4.66325
-4.47241
-4.27745
-4.0785
-3.87564
-3.66899
-3.45862
-3.24466
-3.02717
-2.8063
-2.58213
-2.35482
-2.12443
-1.89114
-1.65503
-1.41628
-1.17501
-0.931363
-0.685454
-0.437457
-0.187547
0.0640377
0.31711
0.571491
0.827008
1.08346
1.34067
1.59839
1.85643
2.11454
2.37252
2.63012
2.88711
3.14325
3.39829
3.65197
3.90405
4.15426
4.40236
4.64811
4.89129
5.13166
5.36902
5.60317
5.83392
6.06108
6.28449
6.50398
6.71939
6.93059
7.13744
7.33984
7.53767
7.73087
7.91937
8.10313
8.2822
8.45649
8.62669
8.79043
8.9576
9.09134
-7.35946
-7.35866
-7.35846
-7.36114
-7.36707
-7.37487
-7.38338
-7.39187
-7.39987
-7.40721
-7.41382
-7.41972
-7.42486
-7.42923
-7.43275
-7.43536
-7.43702
-7.43767
-7.43729
-7.43587
-7.43338
-7.42983
-7.42526
-7.41968
-7.41309
-7.4055
-7.3969
-7.38731
-7.37682
-7.36557
-7.35393
-7.34257
-7.33248
-7.32482
-7.32052
-7.31949
-7.32061
-7.3228
-7.32572
-7.32952
-7.33425
-7.33994
-7.34735
-7.35769
-7.37185
-7.39002
-7.41199
-7.43751
-7.46632
-7.49822
-7.53303
-7.57061
-7.61088
-7.65383
-7.69942
-7.74762
-7.79829
-7.85124
-7.90612
-7.96254
-8.02001
-8.07803
-8.13602
-8.19343
-8.24967
-8.30418
-8.35641
-8.40586
-8.45204
-8.49453
-8.53292
-8.56685
-8.59601
-8.62017
-8.63908
-8.65261
-8.66064
-8.66311
-8.66
-8.65133
-8.63716
-8.61757
-8.59265
-8.56253
-8.52734
-8.48721
-8.44226
-8.39266
-8.33856
-8.27992
-8.21676
-8.14915
-8.07719
-8.00095
-7.92043
-7.83567
-7.74668
-7.65347
-7.55601
-7.45429
-7.34828
-7.23796
-7.12329
-7.00426
-6.88083
-6.75295
-6.62058
-6.4837
-6.34226
-6.19627
-6.04571
-5.89059
-5.73093
-5.56677
-5.39815
-5.2251
-5.04768
-4.86593
-4.67991
-4.4897
-4.2954
-4.0971
-3.89491
-3.68891
-3.47921
-3.2659
-3.04908
-2.82886
-2.60535
-2.37867
-2.14893
-1.91626
-1.68077
-1.44263
-1.20193
-0.958837
-0.713467
-0.465996
-0.216613
0.0344682
0.287068
0.541015
0.796134
1.05223
1.3091
1.56653
1.82431
2.0822
2.33999
2.59744
2.85433
3.11039
3.36539
3.61907
3.87118
4.12145
4.36965
4.61551
4.85883
5.09938
5.33693
5.57129
5.80227
6.02968
6.25334
6.4731
6.68879
6.90027
7.1074
7.31008
7.5082
7.70167
7.89043
8.07443
8.25366
8.42798
8.59803
8.76095
8.92762
9.05459
-7.36437
-7.36351
-7.36483
-7.37065
-7.37907
-7.38811
-7.39702
-7.40548
-7.41331
-7.42046
-7.42691
-7.43261
-7.43751
-7.44155
-7.44468
-7.44686
-7.44802
-7.44816
-7.44724
-7.44526
-7.44222
-7.43814
-7.43303
-7.42689
-7.41968
-7.41137
-7.40199
-7.39161
-7.38039
-7.36858
-7.35667
-7.34544
-7.33595
-7.32903
-7.32476
-7.32234
-7.32141
-7.3223
-7.32528
-7.3304
-7.33787
-7.34809
-7.36145
-7.37804
-7.39783
-7.42068
-7.44639
-7.47477
-7.50574
-7.53918
-7.575
-7.61315
-7.65357
-7.69627
-7.74124
-7.78846
-7.83782
-7.88919
-7.94231
-7.99689
-8.05252
-8.10878
-8.16515
-8.22112
-8.27611
-8.32957
-8.38093
-8.42966
-8.47523
-8.51717
-8.55502
-8.58839
-8.61695
-8.64039
-8.65851
-8.67114
-8.67816
-8.67954
-8.67528
-8.66541
-8.65001
-8.6292
-8.60308
-8.57181
-8.53553
-8.4944
-8.44856
-8.39818
-8.3434
-8.28423
-8.22062
-8.1527
-8.08056
-8.00426
-7.92378
-7.83916
-7.75038
-7.65747
-7.56036
-7.45906
-7.3535
-7.24367
-7.12951
-7.01102
-6.8881
-6.76076
-6.6289
-6.49254
-6.3516
-6.20612
-6.05605
-5.90143
-5.74226
-5.57859
-5.41044
-5.23788
-5.06093
-4.87965
-4.69411
-4.5044
-4.3106
-4.11282
-3.91115
-3.70568
-3.49652
-3.28374
-3.06748
-2.84779
-2.62483
-2.39867
-2.16948
-1.93733
-1.70238
-1.46473
-1.22454
-0.981907
-0.737003
-0.489987
-0.241062
0.00958895
0.261786
0.51537
0.770153
1.02595
1.28255
1.53975
1.79732
2.05505
2.3127
2.57006
2.82687
3.08291
3.33791
3.59163
3.84378
4.09413
4.34242
4.58842
4.83187
5.07258
5.31031
5.54487
5.77606
6.00371
6.22761
6.4476
6.66353
6.87524
7.08261
7.28551
7.48384
7.67751
7.86644
8.05056
8.22983
8.40402
8.57373
8.73567
8.90184
9.02239
-7.36932
-7.36924
-7.37311
-7.38104
-7.39004
-7.3989
-7.40739
-7.41544
-7.42297
-7.42991
-7.43618
-7.4417
-7.44639
-7.4502
-7.45305
-7.45491
-7.45573
-7.4555
-7.45422
-7.45187
-7.44848
-7.44406
-7.43861
-7.43208
-7.42447
-7.41582
-7.40624
-7.39582
-7.38477
-7.37343
-7.36253
-7.35293
-7.34521
-7.33913
-7.33416
-7.33044
-7.32878
-7.32964
-7.3335
-7.34076
-7.35155
-7.36555
-7.38253
-7.40229
-7.42464
-7.44941
-7.47651
-7.50584
-7.53735
-7.57103
-7.60685
-7.64482
-7.68495
-7.7273
-7.77183
-7.81857
-7.86739
-7.91821
-7.97077
-8.02484
-8.08002
-8.13593
-8.19206
-8.2479
-8.30286
-8.35638
-8.40784
-8.45668
-8.50233
-8.54427
-8.58201
-8.61511
-8.64321
-8.66601
-8.68329
-8.69486
-8.70068
-8.70069
-8.69495
-8.68352
-8.66653
-8.64411
-8.61642
-8.58364
-8.54593
-8.50348
-8.45645
-8.40502
-8.34935
-8.2894
-8.22517
-8.15677
-8.0843
-8.0078
-7.92725
-7.84266
-7.75402
-7.6613
-7.56448
-7.4635
-7.35832
-7.24889
-7.13517
-7.0171
-6.89463
-6.7677
-6.63628
-6.50032
-6.3598
-6.2147
-6.06501
-5.91076
-5.75197
-5.58866
-5.42087
-5.24866
-5.07205
-4.89112
-4.70593
-4.51659
-4.32318
-4.1258
-3.92455
-3.71951
-3.51077
-3.29844
-3.08261
-2.86338
-2.64087
-2.41518
-2.18643
-1.95474
-1.72024
-1.48303
-1.24326
-1.00105
-0.756546
-0.509944
-0.261422
-0.0111522
0.240698
0.493964
0.748461
1.004
1.26038
1.51738
1.77479
2.03238
2.28993
2.54722
2.804
3.06004
3.31507
3.56884
3.82105
4.07149
4.31988
4.566
4.8096
5.05047
5.28838
5.52314
5.75455
5.98242
6.20655
6.42676
6.64289
6.85481
7.06237
7.26546
7.46396
7.65778
7.84683
8.031
8.21022
8.38418
8.55346
8.71439
8.8801
8.99475
-7.37219
-7.37353
-7.37972
-7.38827
-7.39687
-7.40523
-7.41332
-7.42109
-7.42842
-7.43522
-7.44138
-7.4468
-7.45137
-7.45505
-7.45774
-7.45942
-7.46005
-7.45963
-7.45814
-7.45562
-7.45206
-7.44747
-7.44185
-7.43521
-7.42756
-7.419
-7.40969
-7.39978
-7.38962
-7.37977
-7.3709
-7.36333
-7.35681
-7.35091
-7.34571
-7.34202
-7.34097
-7.34318
-7.34896
-7.35824
-7.3708
-7.38628
-7.40441
-7.42494
-7.44771
-7.47259
-7.49954
-7.52852
-7.55956
-7.59268
-7.62794
-7.66544
-7.7052
-7.7473
-7.79175
-7.83853
-7.88756
-7.93873
-7.99179
-8.04651
-8.10249
-8.15931
-8.21645
-8.27337
-8.32945
-8.38407
-8.43658
-8.48635
-8.53276
-8.57524
-8.61326
-8.64637
-8.67417
-8.69634
-8.71268
-8.72305
-8.72739
-8.72573
-8.71816
-8.70481
-8.68584
-8.66144
-8.63182
-8.59717
-8.5577
-8.51362
-8.46513
-8.41241
-8.35562
-8.29473
-8.22973
-8.16071
-8.08782
-8.01101
-7.93031
-7.84567
-7.7571
-7.66452
-7.56792
-7.46719
-7.36234
-7.25324
-7.13989
-7.02217
-6.90007
-6.77349
-6.64242
-6.50678
-6.36659
-6.22178
-6.0724
-5.91842
-5.7599
-5.59685
-5.42933
-5.25735
-5.08099
-4.9003
-4.71538
-4.52632
-4.3332
-4.13614
-3.93521
-3.73051
-3.52212
-3.31017
-3.0947
-2.87586
-2.65373
-2.42844
-2.20007
-1.9688
-1.73468
-1.49787
-1.25846
-1.01662
-0.772493
-0.526267
-0.278103
-0.0281718
0.223375
0.476358
0.730608
0.985921
1.24211
1.49894
1.75621
2.01369
2.27117
2.52841
2.78518
3.04123
3.29631
3.55012
3.80242
4.05294
4.30144
4.54768
4.79144
5.03247
5.27056
5.50552
5.73713
5.96521
6.18954
6.40995
6.62627
6.83836
7.04608
7.24932
7.44795
7.64188
7.83099
8.01515
8.19426
8.36793
8.53673
8.69666
8.86194
8.97133
-7.37145
-7.37441
-7.38171
-7.39002
-7.39824
-7.40634
-7.41426
-7.42194
-7.42924
-7.43606
-7.44225
-7.4477
-7.45232
-7.45601
-7.45872
-7.4604
-7.46101
-7.46057
-7.45905
-7.45648
-7.45287
-7.44824
-7.44261
-7.436
-7.42849
-7.42025
-7.41157
-7.40278
-7.39425
-7.38628
-7.37902
-7.37248
-7.3666
-7.3614
-7.35741
-7.35534
-7.35601
-7.35975
-7.36669
-7.37668
-7.38954
-7.40496
-7.42273
-7.44261
-7.46451
-7.48834
-7.51413
-7.54193
-7.57179
-7.60387
-7.63827
-7.67513
-7.71452
-7.75657
-7.80126
-7.84863
-7.89856
-7.95093
-8.00549
-8.06195
-8.11987
-8.17879
-8.23813
-8.29729
-8.35557
-8.4123
-8.46676
-8.51824
-8.56605
-8.60957
-8.64824
-8.68155
-8.7091
-8.7306
-8.74584
-8.75473
-8.75729
-8.7536
-8.74383
-8.72816
-8.70683
-8.68009
-8.64817
-8.61134
-8.56982
-8.52385
-8.47365
-8.41945
-8.36138
-8.29942
-8.23353
-8.16383
-8.09041
-8.01326
-7.93233
-7.84761
-7.75904
-7.66657
-7.57012
-7.46965
-7.36504
-7.25626
-7.1432
-7.02581
-6.90401
-6.77774
-6.64695
-6.51159
-6.37164
-6.22707
-6.07791
-5.92414
-5.76582
-5.60296
-5.43561
-5.2638
-5.0876
-4.90709
-4.72236
-4.53351
-4.34063
-4.14381
-3.94315
-3.73873
-3.53064
-3.31899
-3.10386
-2.88535
-2.66357
-2.43863
-2.21063
-1.9797
-1.74594
-1.50949
-1.27044
-1.02894
-0.785166
-0.53929
-0.291462
-0.0418386
0.209423
0.46215
0.716164
0.97127
1.22727
1.48394
1.74107
1.99845
2.25585
2.51305
2.76981
3.02591
3.28104
3.53491
3.78728
4.03789
4.2865
4.53287
4.77677
5.01796
5.25623
5.49137
5.7232
5.95149
6.17601
6.39659
6.61308
6.82532
7.03318
7.23655
7.43529
7.62929
7.81844
8.00255
8.1815
8.35483
8.52313
8.6821
8.84695
8.95178
-7.36548
-7.36969
-7.37716
-7.38529
-7.39353
-7.40172
-7.40977
-7.41761
-7.42512
-7.43217
-7.43862
-7.44432
-7.44917
-7.45307
-7.45595
-7.45775
-7.45844
-7.45802
-7.45649
-7.45388
-7.45021
-7.44551
-7.43986
-7.43337
-7.42625
-7.41875
-7.4111
-7.40352
-7.39621
-7.38931
-7.38299
-7.37738
-7.3727
-7.36911
-7.36702
-7.36687
-7.36916
-7.37405
-7.38163
-7.39173
-7.40422
-7.41883
-7.43541
-7.4538
-7.47399
-7.49599
-7.5199
-7.54585
-7.57403
-7.60466
-7.63789
-7.67399
-7.71305
-7.75522
-7.80053
-7.84902
-7.90054
-7.95497
-8.01198
-8.07124
-8.13224
-8.19442
-8.2571
-8.31959
-8.3811
-8.44085
-8.49804
-8.55189
-8.60166
-8.64665
-8.68623
-8.71989
-8.7472
-8.76786
-8.78175
-8.78885
-8.78924
-8.7831
-8.77067
-8.75227
-8.72818
-8.69874
-8.66422
-8.62491
-8.58107
-8.53297
-8.48089
-8.42504
-8.3656
-8.30249
-8.23566
-8.16524
-8.09126
-8.01374
-7.93257
-7.84774
-7.75915
-7.66677
-7.57048
-7.47022
-7.36586
-7.25736
-7.14457
-7.02747
-6.90594
-6.77996
-6.64941
-6.5143
-6.37454
-6.23019
-6.08118
-5.92759
-5.76941
-5.6067
-5.43947
-5.26778
-5.09169
-4.91132
-4.72674
-4.53806
-4.34538
-4.14877
-3.94835
-3.74417
-3.53637
-3.32499
-3.11018
-2.89197
-2.67054
-2.44591
-2.21827
-1.98767
-1.75427
-1.51815
-1.27945
-1.0383
-0.794886
-0.549356
-0.30186
-0.0525406
0.198435
0.450906
0.70468
0.959578
1.21538
1.4719
1.7289
1.98618
2.24351
2.50068
2.75745
3.01361
3.26881
3.52274
3.77516
4.02586
4.27458
4.52107
4.76511
5.00646
5.2449
5.48023
5.71225
5.94075
6.16546
6.38619
6.60282
6.81519
7.02317
7.22663
7.42546
7.61952
7.80868
7.99271
8.17146
8.34444
8.51222
8.67027
8.83466
8.93561
-7.35255
-7.35738
-7.36497
-7.37355
-7.38236
-7.39103
-7.39951
-7.40779
-7.41576
-7.42329
-7.43021
-7.43635
-7.44157
-7.44578
-7.44887
-7.45082
-7.45156
-7.45111
-7.44947
-7.4467
-7.44286
-7.43806
-7.43245
-7.42618
-7.41944
-7.41246
-7.40544
-7.39858
-7.39208
-7.38612
-7.38099
-7.37682
-7.37384
-7.37219
-7.3722
-7.37404
-7.37797
-7.38399
-7.39213
-7.40215
-7.41396
-7.42732
-7.44218
-7.45846
-7.47627
-7.49573
-7.51707
-7.54056
-7.56648
-7.59519
-7.62696
-7.6621
-7.70082
-7.74334
-7.78967
-7.83985
-7.8937
-7.95103
-8.01145
-8.07453
-8.13966
-8.20619
-8.2733
-8.34016
-8.40586
-8.46952
-8.53019
-8.58703
-8.63919
-8.68594
-8.72658
-8.76055
-8.78743
-8.80697
-8.8191
-8.82391
-8.82161
-8.8125
-8.79694
-8.77535
-8.74814
-8.71568
-8.67829
-8.63628
-8.58992
-8.53954
-8.48543
-8.42789
-8.36705
-8.3028
-8.23506
-8.1639
-8.08941
-8.0115
-7.93012
-7.84517
-7.75661
-7.66433
-7.56823
-7.46818
-7.3641
-7.25585
-7.14336
-7.02654
-6.9053
-6.77958
-6.64929
-6.5144
-6.37486
-6.23067
-6.08183
-5.92839
-5.77035
-5.60775
-5.44062
-5.26902
-5.09304
-4.91279
-4.72835
-4.53984
-4.34734
-4.15095
-3.95075
-3.74684
-3.5393
-3.32823
-3.11372
-2.89584
-2.67474
-2.45047
-2.22318
-1.99295
-1.7599
-1.52416
-1.28583
-1.04507
-0.802043
-0.556883
-0.309729
-0.0607314
0.18995
0.442144
0.69567
0.95034
1.20595
1.46229
1.71916
1.97633
2.23359
2.49072
2.74752
3.00378
3.2591
3.51308
3.76554
4.0163
4.26512
4.51174
4.75591
4.99741
5.23602
5.47154
5.70379
5.93251
6.15739
6.37825
6.595
6.80749
7.01558
7.21913
7.41803
7.61213
7.80129
7.98524
8.16377
8.33637
8.50364
8.66082
8.82472
8.92248
-7.33169
-7.33664
-7.34494
-7.35477
-7.36462
-7.37403
-7.38315
-7.39211
-7.40084
-7.40914
-7.41678
-7.42353
-7.42923
-7.43378
-7.43709
-7.4391
-7.43977
-7.43911
-7.43715
-7.43398
-7.42972
-7.42452
-7.41856
-7.41206
-7.40526
-7.3984
-7.39174
-7.38554
-7.38007
-7.37555
-7.37218
-7.37008
-7.36946
-7.37034
-7.37289
-7.37706
-7.38292
-7.39026
-7.399
-7.40885
-7.41972
-7.43141
-7.44399
-7.45748
-7.47214
-7.48825
-7.50621
-7.52646
-7.54948
-7.57572
-7.60562
-7.63964
-7.67801
-7.72104
-7.76874
-7.82116
-7.87805
-7.93918
-8.00402
-8.07203
-8.14243
-8.21442
-8.28701
-8.35923
-8.42998
-8.49823
-8.56293
-8.62312
-8.67787
-8.72635
-8.76785
-8.80181
-8.8278
-8.84564
-8.85537
-8.85727
-8.85168
-8.83905
-8.81991
-8.79481
-8.76425
-8.72864
-8.6883
-8.64355
-8.59464
-8.54192
-8.48582
-8.42661
-8.36443
-8.29907
-8.23046
-8.15859
-8.08358
-8.00532
-7.92377
-7.83878
-7.75031
-7.6582
-7.56237
-7.4626
-7.35883
-7.25088
-7.13872
-7.02221
-6.90132
-6.77589
-6.6459
-6.51123
-6.37192
-6.22791
-6.07927
-5.92598
-5.76809
-5.6056
-5.43857
-5.26707
-5.09121
-4.91109
-4.72682
-4.5385
-4.34621
-4.15006
-3.95012
-3.7465
-3.53927
-3.32856
-3.11439
-2.89691
-2.67618
-2.45233
-2.22543
-1.99563
-1.763
-1.52769
-1.2898
-1.04949
-0.806898
-0.562149
-0.315378
-0.0667439
0.1836
0.435478
0.688719
0.943125
1.19851
1.45465
1.71135
1.96839
2.22555
2.48261
2.73942
2.99582
3.25131
3.5054
3.75793
4.00875
4.25767
4.5044
4.74871
4.99037
5.22915
5.46485
5.69735
5.92634
6.1514
6.37237
6.58922
6.80182
7.01
7.21363
7.41259
7.60674
7.7959
7.97975
8.15804
8.33025
8.49702
8.65338
8.81672
8.91196
-7.30319
-7.30843
-7.31815
-7.32979
-7.34091
-7.35118
-7.36118
-7.37121
-7.38113
-7.39058
-7.39923
-7.40678
-7.41304
-7.41791
-7.42132
-7.42318
-7.42345
-7.42216
-7.41936
-7.4152
-7.40984
-7.40354
-7.39655
-7.38922
-7.38187
-7.37488
-7.3686
-7.36336
-7.35944
-7.35703
-7.35631
-7.3573
-7.36007
-7.36445
-7.3704
-7.37759
-7.38588
-7.39484
-7.40428
-7.41383
-7.42342
-7.43291
-7.44249
-7.45231
-7.46284
-7.47454
-7.48805
-7.50405
-7.5232
-7.54624
-7.57377
-7.60637
-7.64441
-7.6882
-7.73778
-7.79313
-7.85396
-7.91988
-7.99024
-8.06429
-8.14105
-8.21947
-8.29837
-8.37655
-8.45276
-8.52579
-8.59448
-8.65778
-8.71472
-8.76445
-8.80627
-8.83961
-8.86407
-8.87953
-8.88618
-8.88452
-8.87512
-8.85853
-8.83553
-8.80683
-8.77304
-8.73449
-8.6915
-8.64427
-8.59306
-8.53821
-8.4803
-8.41951
-8.35606
-8.28964
-8.22015
-8.14761
-8.07205
-7.99347
-7.91175
-7.8268
-7.73848
-7.64666
-7.55113
-7.45172
-7.34826
-7.24067
-7.12884
-7.0127
-6.89214
-6.76705
-6.63733
-6.50291
-6.36378
-6.21996
-6.07149
-5.91836
-5.76059
-5.59821
-5.43126
-5.25985
-5.08411
-4.90413
-4.72003
-4.5319
-4.33984
-4.14395
-3.94432
-3.74103
-3.53417
-3.32384
-3.11011
-2.89309
-2.67283
-2.44946
-2.22307
-1.99379
-1.7617
-1.52693
-1.2896
-1.04985
-0.807813
-0.563592
-0.317333
-0.0691878
0.180682
0.43211
0.684919
0.938923
1.19392
1.44972
1.70609
1.96283
2.21972
2.47653
2.73314
2.98946
3.24501
3.49916
3.75176
4.00265
4.25164
4.49847
4.74291
4.9847
5.22362
5.45951
5.69228
5.92162
6.14695
6.36807
6.58503
6.79773
7.00602
7.20974
7.40877
7.60299
7.7922
7.97597
8.15402
8.32585
8.49212
8.64771
8.81043
8.9038
-7.26928
-7.27543
-7.28718
-7.30098
-7.31349
-7.32468
-7.33565
-7.34698
-7.35854
-7.3697
-7.3799
-7.38857
-7.39545
-7.40046
-7.40364
-7.4049
-7.40418
-7.40148
-7.39692
-7.39074
-7.3832
-7.37473
-7.36575
-7.3568
-7.34838
-7.34104
-7.33524
-7.33136
-7.32973
-7.33048
-7.33371
-7.3392
-7.34681
-7.35606
-7.36661
-7.3778
-7.38923
-7.40023
-7.41049
-7.41955
-7.42736
-7.43383
-7.4393
-7.44417
-7.44912
-7.45498
-7.46264
-7.47315
-7.48743
-7.50651
-7.53121
-7.56233
-7.60028
-7.64533
-7.69753
-7.75666
-7.82236
-7.89395
-7.97069
-8.05142
-8.13504
-8.22013
-8.3054
-8.38936
-8.47071
-8.54803
-8.62017
-8.68593
-8.74443
-8.79472
-8.83619
-8.86821
-8.89047
-8.9029
-8.90589
-8.90027
-8.88664
-8.86576
-8.83867
-8.8065
-8.76979
-8.72875
-8.68359
-8.63445
-8.58157
-8.52537
-8.46602
-8.40422
-8.33964
-8.27245
-8.20237
-8.1295
-8.05372
-7.97504
-7.89332
-7.80853
-7.72045
-7.62896
-7.53378
-7.43475
-7.33163
-7.22439
-7.11289
-6.99709
-6.87682
-6.75201
-6.62249
-6.48826
-6.34925
-6.20555
-6.05715
-5.9041
-5.74638
-5.58402
-5.41709
-5.24571
-5.07
-4.89009
-4.70607
-4.51806
-4.32617
-4.13047
-3.93108
-3.72806
-3.52155
-3.31158
-3.09828
-2.88168
-2.66191
-2.43903
-2.21318
-1.98442
-1.75289
-1.51868
-1.28193
-1.04278
-0.801327
-0.557684
-0.311998
-0.0644168
0.184896
0.435782
0.688061
0.941555
1.19606
1.45138
1.70729
1.96358
2.22
2.47632
2.7323
2.98772
3.24237
3.49601
3.74836
3.99912
4.24801
4.49478
4.73916
4.98092
5.21981
5.45565
5.68846
5.91799
6.14357
6.36485
6.58193
6.79473
7.00312
7.20693
7.40605
7.60036
7.78971
7.97348
8.15134
8.3228
8.48862
8.64347
8.80553
8.89769
-7.23264
-7.24009
-7.25433
-7.27027
-7.28356
-7.29553
-7.3082
-7.32169
-7.33546
-7.34878
-7.36098
-7.37118
-7.37888
-7.38395
-7.38657
-7.3866
-7.38399
-7.37873
-7.37105
-7.36131
-7.35002
-7.33787
-7.32553
-7.31387
-7.30362
-7.29561
-7.2904
-7.28855
-7.2903
-7.2957
-7.30457
-7.31644
-7.33075
-7.34661
-7.3633
-7.37967
-7.39513
-7.4086
-7.4197
-7.42775
-7.43289
-7.43497
-7.4347
-7.43269
-7.43019
-7.42833
-7.42857
-7.43231
-7.44087
-7.4555
-7.47724
-7.50702
-7.54503
-7.59173
-7.64685
-7.7103
-7.7812
-7.85898
-7.94228
-8.03001
-8.12045
-8.21224
-8.30365
-8.39321
-8.47933
-8.56072
-8.6359
-8.70387
-8.76342
-8.81376
-8.85405
-8.88388
-8.90296
-8.91185
-8.91146
-8.90277
-8.88638
-8.86284
-8.83295
-8.79788
-8.75809
-8.71423
-8.66632
-8.61492
-8.56008
-8.50226
-8.44173
-8.37856
-8.31312
-8.24512
-8.17461
-8.10155
-8.02581
-7.94727
-7.86587
-7.78145
-7.69385
-7.60284
-7.5082
-7.40967
-7.30711
-7.20037
-7.08938
-6.97401
-6.85415
-6.72968
-6.60048
-6.46649
-6.32772
-6.1842
-6.03596
-5.88303
-5.7254
-5.56312