/*--------------------------------*- C++ -*----------------------------------*\
  =========                 |
  \\      /  F ield         | OpenFOAM: The Open Source CFD Toolbox
   \\    /   O peration     | Website:  https://openfoam.org
    \\  /    A nd           | Version:  13
     \\/     M anipulation  |
\*---------------------------------------------------------------------------*/
FoamFile
{
    format      ascii;
    class       surfaceScalarField;
    location    "1900";
    object      phi;
}
// * * * * * * * * * * * * * * * * * * * * * * * * * * * * * * * * * * * * * //

dimensions      [0 3 -1 0 0 0 0];

internalField   nonuniform List<scalar> 
24170
(
3.06478e-06
1.236e-07
2.92207e-06
1.42572e-07
2.79237e-06
1.29611e-07
2.67883e-06
1.13522e-07
2.58258e-06
9.61638e-08
2.49976e-06
8.28294e-08
2.42982e-06
6.98428e-08
2.37047e-06
5.93484e-08
2.31934e-06
5.10632e-08
2.27485e-06
4.44885e-08
2.23409e-06
4.07097e-08
2.19648e-06
3.7598e-08
2.16355e-06
3.28972e-08
2.13673e-06
2.68084e-08
2.1163e-06
2.04109e-08
2.10291e-06
1.33886e-08
2.09583e-06
7.10819e-09
-9.86058e-11
2.09597e-06
3.46686e-06
7.39545e-08
3.49668e-06
1.12509e-07
3.50892e-06
1.17157e-07
3.50306e-06
1.192e-07
3.48347e-06
1.15562e-07
3.46007e-06
1.06127e-07
3.436e-06
9.37616e-08
3.40818e-06
8.70873e-08
3.37856e-06
8.05811e-08
3.35112e-06
7.18641e-08
3.32533e-06
6.64357e-08
3.30142e-06
6.1466e-08
3.27863e-06
5.56427e-08
3.25515e-06
5.02613e-08
3.23123e-06
4.43168e-08
3.2079e-06
3.67247e-08
3.18578e-06
2.92548e-08
2.15202e-08
3.16418e-06
3.68116e-06
5.52924e-08
3.69811e-06
9.55405e-08
3.7126e-06
1.02668e-07
3.72594e-06
1.0588e-07
3.737e-06
1.04478e-07
3.74509e-06
9.80604e-08
3.74963e-06
8.91751e-08
3.75278e-06
8.39373e-08
3.75449e-06
7.88462e-08
3.75411e-06
7.22491e-08
3.75294e-06
6.75832e-08
3.75139e-06
6.30054e-08
3.74916e-06
5.78648e-08
3.74642e-06
5.29951e-08
3.74289e-06
4.78266e-08
3.73783e-06
4.17811e-08
3.73138e-06
3.57137e-08
2.89549e-08
3.72394e-06
3.93633e-06
4.43242e-08
3.94839e-06
8.33054e-08
3.95811e-06
9.27755e-08
3.96734e-06
9.6492e-08
3.9757e-06
9.59559e-08
3.98272e-06
9.09264e-08
3.98796e-06
8.3819e-08
3.99321e-06
7.8604e-08
3.99852e-06
7.34702e-08
4.00296e-06
6.77563e-08
4.0072e-06
6.33006e-08
4.01125e-06
5.89276e-08
4.01483e-06
5.42579e-08
4.01813e-06
4.96782e-08
4.02108e-06
4.48593e-08
4.02321e-06
3.96491e-08
4.02449e-06
3.44408e-08
2.91087e-08
4.02434e-06
4.21516e-06
3.62817e-08
4.22498e-06
7.34828e-08
4.23311e-06
8.46641e-08
4.24077e-06
8.88578e-08
4.24777e-06
8.897e-08
4.2535e-06
8.52254e-08
4.25781e-06
7.9495e-08
4.26191e-06
7.45039e-08
4.26587e-06
6.95e-08
4.26929e-06
6.43399e-08
4.27262e-06
5.99667e-08
4.27589e-06
5.56457e-08
4.279e-06
5.11439e-08
4.28201e-06
4.66554e-08
4.28484e-06
4.20214e-08
4.28723e-06
3.72502e-08
4.28912e-06
3.25518e-08
2.81196e-08
4.2901e-06
4.51547e-06
2.98726e-08
4.52391e-06
6.48822e-08
4.53138e-06
7.70657e-08
4.53835e-06
8.17446e-08
4.54483e-06
8.23724e-08
4.55026e-06
7.9693e-08
4.55462e-06
7.50553e-08
4.55861e-06
7.04401e-08
4.56232e-06
6.5742e-08
4.56557e-06
6.10441e-08
4.56871e-06
5.68071e-08
4.57174e-06
5.2589e-08
4.57461e-06
4.82513e-08
4.57736e-06
4.38957e-08
4.57988e-06
3.94866e-08
4.58205e-06
3.50722e-08
4.58381e-06
3.07993e-08
2.69315e-08
4.585e-06
4.83792e-06
2.46585e-08
4.84555e-06
5.72712e-08
4.85274e-06
6.99057e-08
4.8595e-06
7.50135e-08
4.86583e-06
7.60681e-08
4.87127e-06
7.42745e-08
4.87578e-06
7.05538e-08
4.87983e-06
6.63843e-08
4.88356e-06
6.20204e-08
4.88693e-06
5.76772e-08
4.89014e-06
5.35857e-08
4.89323e-06
4.94994e-08
4.89613e-06
4.53397e-08
4.89885e-06
4.11674e-08
4.90132e-06
3.70075e-08
4.90347e-06
3.29144e-08
4.90528e-06
2.89997e-08
2.54785e-08
4.9067e-06
5.18377e-06
2.04612e-08
5.19079e-06
5.0128e-08
5.19777e-06
6.28169e-08
5.20438e-06
6.82958e-08
5.21061e-06
6.9747e-08
5.21618e-06
6.86303e-08
5.22094e-06
6.57174e-08
5.22521e-06
6.20722e-08
5.22908e-06
5.81102e-08
5.23261e-06
5.41112e-08
5.23597e-06
5.02061e-08
5.23916e-06
4.62916e-08
5.24216e-06
4.23314e-08
5.24494e-06
3.83727e-08
5.24748e-06
3.44524e-08
5.24976e-06
3.06403e-08
5.25173e-06
2.70165e-08
2.37833e-08
5.25342e-06
5.55467e-06
1.71163e-08
5.56113e-06
4.36919e-08
5.56794e-06
5.603e-08
5.57449e-06
6.17709e-08
5.58063e-06
6.36313e-08
5.58625e-06
6.30221e-08
5.59127e-06
6.07073e-08
5.59581e-06
5.75291e-08
5.59994e-06
5.39757e-08
5.60374e-06
5.03161e-08
5.6073e-06
4.66421e-08
5.61067e-06
4.29222e-08
5.61382e-06
3.91695e-08
5.61675e-06
3.54397e-08
5.61942e-06
3.17715e-08
5.62184e-06
2.82272e-08
5.62397e-06
2.48818e-08
2.18634e-08
5.62585e-06
5.95249e-06
1.43979e-08
5.95835e-06
3.77215e-08
5.96498e-06
4.92951e-08
5.97151e-06
5.51424e-08
5.9777e-06
5.73624e-08
5.98344e-06
5.7207e-08
5.98866e-06
5.54254e-08
5.99343e-06
5.27085e-08
5.99782e-06
4.95549e-08
6.00188e-06
4.62315e-08
6.00567e-06
4.2824e-08
6.00923e-06
3.93449e-08
6.01256e-06
3.58353e-08
6.01564e-06
3.23508e-08
6.01846e-06
2.8946e-08
6.02102e-06
2.56675e-08
6.02331e-06
2.25786e-08
1.97828e-08
6.02537e-06
6.37908e-06
1.21069e-08
6.38434e-06
3.2479e-08
6.39068e-06
4.29657e-08
6.39713e-06
4.8688e-08
6.40338e-06
5.11026e-08
6.40927e-06
5.12961e-08
6.41473e-06
4.99546e-08
6.41975e-06
4.76705e-08
6.42439e-06
4.48988e-08
6.42871e-06
4.19045e-08
6.43274e-06
3.87844e-08
6.4365e-06
3.55831e-08
6.43999e-06
3.23311e-08
6.44322e-06
2.91213e-08
6.44619e-06
2.59748e-08
6.4489e-06
2.29649e-08
6.45135e-06
2.01215e-08
1.75263e-08
6.45357e-06
5.74251e-06
1.04412e-08
5.74652e-06
2.84119e-08
5.75158e-06
3.78541e-08
5.75689e-06
4.33226e-08
5.76216e-06
4.57894e-08
5.76723e-06
4.61951e-08
5.77199e-06
4.51617e-08
5.77642e-06
4.32156e-08
5.78054e-06
4.07611e-08
5.78439e-06
3.80505e-08
5.78798e-06
3.51926e-08
5.79131e-06
3.22217e-08
5.79442e-06
2.92449e-08
5.79728e-06
2.62489e-08
5.79991e-06
2.33605e-08
5.80231e-06
2.05582e-08
5.8045e-06
1.79289e-08
1.55016e-08
5.80649e-06
6.99984e-06
8.73667e-09
7.00403e-06
2.42086e-08
7.00947e-06
3.23875e-08
7.01537e-06
3.73909e-08
7.02135e-06
3.97791e-08
7.0272e-06
4.03105e-08
7.03277e-06
3.95617e-08
7.03802e-06
3.79441e-08
7.04293e-06
3.58319e-08
7.04753e-06
3.34366e-08
7.05182e-06
3.0869e-08
7.05584e-06
2.82167e-08
7.05955e-06
2.55069e-08
7.06299e-06
2.28353e-08
7.06613e-06
2.01991e-08
7.06903e-06
1.76879e-08
7.07165e-06
1.52733e-08
1.30943e-08
7.07406e-06
8.53255e-06
7.04767e-09
8.53686e-06
1.98688e-08
8.54263e-06
2.66129e-08
8.54906e-06
3.09644e-08
8.55572e-06
3.31e-08
8.56235e-06
3.36812e-08
8.56876e-06
3.31291e-08
8.57487e-06
3.18385e-08
8.58064e-06
3.0049e-08
8.58607e-06
2.80032e-08
8.59114e-06
2.576e-08
8.59588e-06
2.34528e-08
8.6003e-06
2.10859e-08
8.60438e-06
1.87481e-08
8.60816e-06
1.64474e-08
8.61159e-06
1.42355e-08
8.61476e-06
1.21284e-08
1.01883e-08
8.6176e-06
1.04009e-05
5.34422e-09
1.04053e-05
1.54385e-08
1.04114e-05
2.0568e-08
1.04183e-05
2.40267e-08
1.04257e-05
2.57953e-08
1.04331e-05
2.6268e-08
1.04403e-05
2.58818e-08
1.04473e-05
2.48292e-08
1.0454e-05
2.33981e-08
1.04603e-05
2.16634e-08
1.04663e-05
1.9832e-08
1.04718e-05
1.78636e-08
1.0477e-05
1.59214e-08
1.04818e-05
1.39351e-08
1.04862e-05
1.20367e-08
1.04903e-05
1.01611e-08
1.0494e-05
8.41107e-09
6.78019e-09
1.04974e-05
1.26785e-05
3.65973e-09
1.2683e-05
1.08854e-08
1.26894e-05
1.42332e-08
1.26968e-05
1.65939e-08
1.27048e-05
1.77766e-08
1.27131e-05
1.80621e-08
1.27213e-05
1.7698e-08
1.27293e-05
1.68854e-08
1.27369e-05
1.57351e-08
1.27442e-05
1.44103e-08
1.2751e-05
1.29381e-08
1.27575e-05
1.14415e-08
1.27634e-05
9.88876e-09
1.2769e-05
8.37728e-09
1.27742e-05
6.86505e-09
1.2779e-05
5.43658e-09
1.27833e-05
4.0417e-09
2.80613e-09
1.27873e-05
1.54549e-05
1.94789e-09
1.54596e-05
6.1453e-09
1.54664e-05
7.49831e-09
1.54744e-05
8.51392e-09
1.54833e-05
8.9353e-09
1.54925e-05
8.87235e-09
1.55017e-05
8.46526e-09
1.55108e-05
7.81192e-09
1.55196e-05
6.97667e-09
1.55279e-05
6.03535e-09
1.55358e-05
5.02674e-09
1.55432e-05
3.99301e-09
1.55502e-05
2.94533e-09
1.55566e-05
1.91147e-09
1.55626e-05
8.96672e-10
1.55681e-05
-7.71292e-11
1.55732e-05
-1.0111e-09
-1.84481e-09
1.55779e-05
1.88394e-05
1.45511e-10
1.88446e-05
9.50378e-10
1.88521e-05
2.63777e-11
1.88611e-05
-5.5526e-10
1.88711e-05
-1.08905e-09
1.88815e-05
-1.62515e-09
1.88921e-05
-2.14969e-09
1.89026e-05
-2.66643e-09
1.89127e-05
-3.17531e-09
1.89224e-05
-3.67583e-09
1.89316e-05
-4.16698e-09
1.89402e-05
-4.6496e-09
1.89483e-05
-5.12388e-09
1.89558e-05
-5.58836e-09
1.89628e-05
-6.04051e-09
1.89691e-05
-6.47581e-09
1.89751e-05
-6.89225e-09
-7.248e-09
1.89804e-05
2.29654e-05
-1.96791e-09
2.29716e-05
-5.29568e-09
2.29806e-05
-8.97932e-09
2.29914e-05
-1.14481e-08
2.30034e-05
-1.31271e-08
2.30159e-05
-1.41983e-08
2.30286e-05
-1.48711e-08
2.30411e-05
-1.51834e-08
2.30532e-05
-1.52971e-08
2.30647e-05
-1.52219e-08
2.30756e-05
-1.50781e-08
2.30858e-05
-1.48556e-08
2.30953e-05
-1.46303e-08
2.31041e-05
-1.43847e-08
2.31122e-05
-1.41641e-08
2.31197e-05
-1.39481e-08
2.31266e-05
-1.37609e-08
-1.35519e-08
2.31328e-05
1.68125e-05
-3.74805e-09
1.68176e-05
-1.04809e-08
1.68249e-05
-1.63312e-08
1.68335e-05
-2.01928e-08
1.6843e-05
-2.25726e-08
1.68526e-05
-2.40061e-08
1.68624e-05
-2.46177e-08
1.68718e-05
-2.47497e-08
1.6881e-05
-2.4402e-08
1.68896e-05
-2.38786e-08
1.68977e-05
-2.31296e-08
1.69051e-05
-2.23665e-08
1.69121e-05
-2.15195e-08
1.69184e-05
-2.07429e-08
1.69243e-05
-1.99601e-08
1.69295e-05
-1.92737e-08
1.69345e-05
-1.86087e-08
-1.80052e-08
1.69389e-05
1.46364e-05
-5.64508e-09
1.46418e-05
-1.58671e-08
1.46492e-05
-2.38402e-08
1.46578e-05
-2.88002e-08
1.46669e-05
-3.17478e-08
1.46761e-05
-3.32985e-08
1.46852e-05
-3.38469e-08
1.46941e-05
-3.35684e-08
1.47024e-05
-3.28098e-08
1.47103e-05
-3.16878e-08
1.47174e-05
-3.04013e-08
1.47241e-05
-2.8999e-08
1.47302e-05
-2.76016e-08
1.47357e-05
-2.62329e-08
1.47407e-05
-2.49612e-08
1.47453e-05
-2.37776e-08
1.47493e-05
-2.2715e-08
-2.17127e-08
1.47531e-05
1.27423e-05
-7.81999e-09
1.27482e-05
-2.1746e-08
1.2756e-05
-3.17108e-08
1.27646e-05
-3.74769e-08
1.27735e-05
-4.07219e-08
1.27825e-05
-4.2305e-08
1.27912e-05
-4.257e-08
1.27994e-05
-4.18675e-08
1.28071e-05
-4.05436e-08
1.28142e-05
-3.88573e-08
1.28208e-05
-3.69589e-08
1.28267e-05
-3.49361e-08
1.2832e-05
-3.29434e-08
1.28368e-05
-3.10043e-08
1.28411e-05
-2.92366e-08
1.28449e-05
-2.75936e-08
1.28484e-05
-2.61421e-08
-2.48025e-08
1.28515e-05
1.10936e-05
-1.04527e-08
1.11002e-05
-2.84154e-08
1.11085e-05
-4.00273e-08
1.11172e-05
-4.61773e-08
1.11259e-05
-4.94798e-08
1.11345e-05
-5.09208e-08
1.11427e-05
-5.07932e-08
1.11503e-05
-4.95267e-08
1.11574e-05
-4.76146e-08
1.11638e-05
-4.53487e-08
1.11697e-05
-4.28226e-08
1.11749e-05
-4.01986e-08
1.11795e-05
-3.75764e-08
1.11835e-05
-3.51074e-08
1.11872e-05
-3.28082e-08
1.11903e-05
-3.07659e-08
1.11931e-05
-2.89278e-08
-2.73062e-08
1.11956e-05
9.65847e-06
-1.37139e-08
9.66622e-06
-3.61619e-08
9.67479e-06
-4.86043e-08
9.6833e-06
-5.46992e-08
9.69169e-06
-5.78848e-08
9.69979e-06
-5.90537e-08
9.70737e-06
-5.8387e-08
9.7143e-06
-5.64705e-08
9.72063e-06
-5.39585e-08
9.72642e-06
-5.11473e-08
9.73163e-06
-4.80594e-08
9.73623e-06
-4.48225e-08
9.74022e-06
-4.16131e-08
9.74366e-06
-3.85665e-08
9.74661e-06
-3.57928e-08
9.74918e-06
-3.33273e-08
9.75142e-06
-3.11823e-08
-2.92983e-08
9.75341e-06
8.4094e-06
-1.77586e-08
8.4184e-06
-4.51726e-08
8.42684e-06
-5.70539e-08
8.43492e-06
-6.28004e-08
8.44289e-06
-6.58655e-08
8.45052e-06
-6.66904e-08
8.45753e-06
-6.54122e-08
8.46382e-06
-6.27696e-08
8.46952e-06
-5.96638e-08
8.47476e-06
-5.6382e-08
8.47946e-06
-5.27758e-08
8.48355e-06
-4.89318e-08
8.48702e-06
-4.51223e-08
8.48994e-06
-4.15069e-08
8.49236e-06
-3.82327e-08
8.4944e-06
-3.53791e-08
8.49615e-06
-3.29554e-08
-3.08137e-08
8.49767e-06
7.32233e-06
-2.28114e-08
7.33262e-06
-5.54662e-08
7.34088e-06
-6.53222e-08
7.34825e-06
-7.01847e-08
7.35573e-06
-7.33696e-08
7.36289e-06
-7.38722e-08
7.36937e-06
-7.18961e-08
7.37504e-06
-6.84408e-08
7.38015e-06
-6.47662e-08
7.38494e-06
-6.11826e-08
7.38928e-06
-5.71103e-08
7.393e-06
-5.26832e-08
7.3961e-06
-4.82295e-08
7.39865e-06
-4.40675e-08
7.40074e-06
-4.03343e-08
7.40251e-06
-3.71413e-08
7.40405e-06
-3.45324e-08
-3.22055e-08
7.40541e-06
6.37772e-06
-3.04638e-08
6.38791e-06
-6.56701e-08
6.3964e-06
-7.38242e-08
6.40358e-06
-7.74461e-08
6.41063e-06
-8.03885e-08
6.41739e-06
-8.06421e-08
6.4236e-06
-7.81151e-08
6.42917e-06
-7.40136e-08
6.43438e-06
-6.99744e-08
6.43959e-06
-6.63737e-08
6.44459e-06
-6.22001e-08
6.44906e-06
-5.71016e-08
6.45288e-06
-5.20593e-08
6.45626e-06
-4.74479e-08
6.45942e-06
-4.34857e-08
6.46238e-06
-4.01098e-08
6.46516e-06
-3.73053e-08
-3.49515e-08
6.46785e-06
5.56148e-06
-4.64829e-08
5.57369e-06
-7.78946e-08
5.58598e-06
-8.61498e-08
5.59999e-06
-9.15097e-08
5.61498e-06
-9.53767e-08
5.63024e-06
-9.59043e-08
5.64492e-06
-9.28068e-08
5.65868e-06
-8.77719e-08
5.67164e-06
-8.29141e-08
5.68379e-06
-7.85847e-08
5.69458e-06
-7.30143e-08
5.70351e-06
-6.60156e-08
5.71072e-06
-5.92397e-08
5.71621e-06
-5.29308e-08
5.72003e-06
-4.72905e-08
5.72226e-06
-4.23258e-08
5.72305e-06
-3.81369e-08
-3.46619e-08
5.72276e-06
4.88506e-06
-1.03941e-07
4.93435e-06
-1.27201e-07
4.97807e-06
-1.29907e-07
5.01285e-06
-1.26355e-07
5.03713e-06
-1.19649e-07
5.05146e-06
-1.10238e-07
5.05798e-06
-9.93346e-08
5.0576e-06
-8.73943e-08
5.05008e-06
-7.53914e-08
5.03801e-06
-6.65659e-08
5.02499e-06
-6.00224e-08
5.01042e-06
-5.14191e-08
4.99215e-06
-4.09384e-08
4.97087e-06
-3.16447e-08
4.94781e-06
-2.42096e-08
4.92403e-06
-1.8547e-08
4.90001e-06
-1.41196e-08
-1.06233e-08
4.87594e-06
4.09873e-06
3.97153e-06
3.84162e-06
3.71526e-06
3.59561e-06
3.48538e-06
3.38604e-06
3.29865e-06
3.22325e-06
3.15668e-06
3.09666e-06
3.04525e-06
3.00431e-06
2.97267e-06
2.94846e-06
2.92991e-06
2.91579e-06
2.90517e-06
-7.95877e-09
7.85299e-09
-2.22956e-08
1.40311e-08
-3.87695e-08
1.63136e-08
-5.51705e-08
1.60851e-08
-6.78249e-08
1.25308e-08
-7.07106e-08
2.48576e-09
-5.78937e-08
-1.27691e-08
-3.07529e-08
-2.75901e-08
8.02698e-09
-3.86217e-08
5.3276e-08
-4.56643e-08
1.02328e-07
-4.88067e-08
1.50126e-07
-4.8115e-08
1.95102e-07
-4.47122e-08
2.34367e-07
-3.95213e-08
2.67836e-07
-3.31922e-08
2.93844e-07
-2.62207e-08
3.12978e-07
-1.88333e-08
3.23994e-07
-1.11965e-08
3.27538e-07
-3.24559e-09
3.22372e-07
5.00194e-09
3.09283e-07
1.33882e-08
2.87686e-07
2.14528e-08
2.59081e-07
2.88844e-08
2.23743e-07
3.52149e-08
1.84017e-07
4.00146e-08
1.41275e-07
4.26892e-08
9.88798e-08
4.27894e-08
5.90584e-08
3.99056e-08
2.54386e-08
3.41489e-08
-6.59272e-10
2.64109e-08
-1.88405e-08
1.88041e-08
-3.10259e-08
1.26584e-08
-3.80619e-08
7.63348e-09
-4.05942e-08
3.08396e-09
-3.79966e-08
-1.89804e-09
-2.86264e-08
-8.79956e-09
-1.08846e-08
-1.70239e-08
1.58874e-08
-2.62533e-08
4.98405e-08
-3.33653e-08
8.50792e-08
-3.48301e-08
1.15489e-07
-2.99585e-08
1.3679e-07
-2.09003e-08
1.47901e-07
-1.07128e-08
1.5137e-07
-3.04593e-09
1.50457e-07
1.26812e-09
1.47546e-07
3.36022e-09
1.43942e-07
3.93292e-09
1.35677e-07
8.9517e-09
1.12675e-07
2.32455e-08
6.78253e-08
4.60716e-08
-3.44395e-09
7.17672e-08
-9.51075e-08
9.3079e-08
-2.06394e-07
1.11672e-07
-3.32357e-07
1.269e-07
-4.70486e-07
1.38392e-07
-6.16207e-07
1.46331e-07
-7.64438e-07
1.48488e-07
-9.10114e-07
1.46068e-07
-1.05143e-06
1.41564e-07
-1.18619e-06
1.34982e-07
-1.31244e-06
1.26503e-07
-1.42968e-06
1.17392e-07
-1.53788e-06
1.08469e-07
-1.63796e-06
1.00177e-07
-1.72966e-06
9.20009e-08
-1.81403e-06
8.44236e-08
-1.89177e-06
7.80231e-08
-1.96387e-06
7.21061e-08
-2.03044e-06
6.68367e-08
-2.09253e-06
6.20794e-08
-2.15014e-06
5.78425e-08
-2.20413e-06
5.39663e-08
-2.2544e-06
5.04748e-08
-2.30168e-06
4.72255e-08
-2.34579e-06
4.42528e-08
-2.38731e-06
4.14299e-08
-2.42605e-06
3.88081e-08
-2.46242e-06
3.62949e-08
-2.49628e-06
3.39382e-08
-2.52795e-06
3.16588e-08
-2.55735e-06
2.94999e-08
-2.58471e-06
2.74085e-08
-2.60999e-06
2.54156e-08
-2.63336e-06
2.34895e-08
-2.65485e-06
2.16463e-08
-2.67455e-06
1.98717e-08
-2.69256e-06
1.81596e-08
-2.70893e-06
1.65067e-08
-2.72375e-06
1.4916e-08
-2.73711e-06
1.33598e-08
-2.74897e-06
1.18852e-08
-2.75941e-06
1.04616e-08
-2.76844e-06
9.08491e-09
-2.77612e-06
7.74201e-09
-2.78243e-06
6.41144e-09
-2.78739e-06
5.08514e-09
-2.79098e-06
3.73321e-09
-2.79315e-06
2.35317e-09
-2.79388e-06
9.24247e-10
-2.79318e-06
-4.85274e-10
-2.79124e-06
-1.71775e-09
-2.78824e-06
-2.73932e-09
-2.78426e-06
-3.72411e-09
-2.77929e-06
-4.68645e-09
-2.77339e-06
-5.66596e-09
-2.76651e-06
-6.64351e-09
-2.7587e-06
-7.64995e-09
-2.7499e-06
-8.65509e-09
-2.74013e-06
-9.68597e-09
-2.72934e-06
-1.07127e-08
-2.71754e-06
-1.17625e-08
-2.70469e-06
-1.2807e-08
-2.69082e-06
-1.3874e-08
-2.67587e-06
-1.49361e-08
-2.65988e-06
-1.60206e-08
-2.64279e-06
-1.70987e-08
-2.62464e-06
-1.81942e-08
-2.60541e-06
-1.92801e-08
-2.58511e-06
-2.0379e-08
-2.56372e-06
-2.14701e-08
-2.54122e-06
-2.25685e-08
-2.51761e-06
-2.36571e-08
-2.4929e-06
-2.47516e-08
-2.4671e-06
-2.58352e-08
-2.44025e-06
-2.69253e-08
-2.41233e-06
-2.8003e-08
-2.38336e-06
-2.90811e-08
-2.35334e-06
-3.0146e-08
-2.32226e-06
-3.12065e-08
-2.29015e-06
-3.22573e-08
-2.25699e-06
-3.33e-08
-2.22281e-06
-3.43263e-08
-2.18762e-06
-3.53316e-08
-2.15145e-06
-3.63196e-08
-2.1143e-06
-3.72652e-08
-2.07625e-06
-3.81743e-08
-2.03733e-06
-3.90147e-08
-1.99761e-06
-3.97883e-08
-1.95704e-06
-4.0574e-08
-1.91553e-06
-4.14706e-08
-1.87311e-06
-4.23493e-08
-1.82984e-06
-4.31775e-08
-1.78576e-06
-4.39981e-08
-1.74086e-06
-4.48049e-08
-1.69518e-06
-4.55924e-08
-1.64873e-06
-4.63634e-08
-1.60154e-06
-4.71072e-08
-1.55363e-06
-4.78347e-08
-1.50504e-06
-4.85329e-08
-1.45577e-06
-4.92121e-08
-1.40587e-06
-4.98574e-08
-1.35536e-06
-5.04784e-08
-1.30428e-06
-5.10576e-08
-1.25267e-06
-5.16058e-08
-1.20057e-06
-5.21073e-08
-1.14801e-06
-5.25765e-08
-1.09504e-06
-5.30025e-08
-1.04168e-06
-5.33984e-08
-9.87979e-07
-5.37587e-08
-9.33957e-07
-5.40914e-08
-8.79639e-07
-5.44005e-08
-8.25053e-07
-5.46793e-08
-7.70216e-07
-5.4942e-08
-7.15156e-07
-5.51734e-08
-6.599e-07
-5.53817e-08
-6.04474e-07
-5.55562e-08
-5.48911e-07
-5.57038e-08
-4.93235e-07
-5.58183e-08
-4.37478e-07
-5.59092e-08
-3.81665e-07
-5.5965e-08
-3.25832e-07
-5.59936e-08
-2.70017e-07
-5.59731e-08
-2.14312e-07
-5.58705e-08
-1.58832e-07
-5.56427e-08
-1.03765e-07
-5.52314e-08
-4.95166e-08
-5.4406e-08
3.26486e-09
-5.29365e-08
5.29762e-08
-4.98518e-08
9.89864e-08
-4.61389e-08
-2.19789e-08
1.20858e-07
-3.73196e-09
1.14089e-08
-1.19777e-08
2.17538e-08
-1.85088e-08
2.26298e-08
-1.83935e-08
1.53161e-08
-4.20002e-09
-1.81694e-09
2.37666e-08
-2.59962e-08
6.32897e-08
-5.22515e-08
1.10044e-07
-7.45936e-08
1.60832e-07
-8.93312e-08
2.10899e-07
-9.59091e-08
2.57656e-07
-9.54731e-08
2.99207e-07
-8.98153e-08
3.35387e-07
-8.07889e-08
3.65568e-07
-6.9829e-08
3.90398e-07
-5.78988e-08
4.09668e-07
-4.5592e-08
4.24195e-07
-3.32084e-08
4.33839e-07
-2.09142e-08
4.39536e-07
-8.77316e-09
4.41239e-07
3.25292e-09
4.39509e-07
1.52908e-08
4.33584e-07
2.73654e-08
4.2324e-07
3.9399e-08
4.07391e-07
5.10793e-08
3.857e-07
6.18862e-08
3.5743e-07
7.1036e-08
3.22877e-07
7.75772e-08
2.82414e-07
8.05002e-08
2.37782e-07
7.91013e-08
1.91167e-07
7.32513e-08
1.4682e-07
6.36296e-08
1.08762e-07
5.11035e-08
8.07034e-08
3.6432e-08
6.44341e-08
2.00594e-08
6.14044e-08
2.07309e-09
7.04167e-08
-1.71066e-08
9.05105e-08
-3.64081e-08
1.17292e-07
-5.25666e-08
1.43905e-07
-5.95092e-08
1.63235e-07
-5.38e-08
1.71905e-07
-3.82423e-08
1.69298e-07
-1.79061e-08
1.56041e-07
2.96085e-09
1.34142e-07
1.93211e-08
1.01018e-07
3.47922e-08
4.75261e-08
5.74082e-08
-3.5587e-08
8.74431e-08
-1.50472e-07
1.2429e-07
-2.90214e-07
1.6326e-07
-4.42716e-07
1.98927e-07
-6.00991e-07
2.30296e-07
-7.62655e-07
2.55113e-07
-9.23608e-07
2.72898e-07
-1.07954e-06
2.83159e-07
-1.22678e-06
2.85884e-07
-1.36202e-06
2.81847e-07
-1.48484e-06
2.71542e-07
-1.59512e-06
2.5657e-07
-1.69275e-06
2.39396e-07
-1.77887e-06
2.2127e-07
-1.85525e-06
2.03059e-07
-1.9234e-06
1.85675e-07
-1.98447e-06
1.69714e-07
-2.03965e-06
1.55466e-07
-2.09016e-06
1.4266e-07
-2.13689e-06
1.31257e-07
-2.18007e-06
1.21334e-07
-2.22046e-06
1.12566e-07
-2.25827e-06
1.04768e-07
-2.2939e-06
9.77726e-08
-2.32741e-06
9.14582e-08
-2.35907e-06
8.56733e-08
-2.38884e-06
8.03412e-08
-2.41694e-06
7.53484e-08
-2.4433e-06
7.06619e-08
-2.46808e-06
6.62055e-08
-2.49122e-06
6.19697e-08
-2.51284e-06
5.79044e-08
-2.53288e-06
5.40125e-08
-2.55146e-06
5.02558e-08
-2.56855e-06
4.66425e-08
-2.58423e-06
4.31482e-08
-2.59852e-06
3.97823e-08
-2.61146e-06
3.65296e-08
-2.6231e-06
3.33945e-08
-2.63348e-06
3.03658e-08
-2.64265e-06
2.74402e-08
-2.65065e-06
2.46131e-08
-2.65756e-06
2.18669e-08
-2.6634e-06
1.92306e-08
-2.66818e-06
1.668e-08
-2.67191e-06
1.42223e-08
-2.67462e-06
1.18481e-08
-2.67634e-06
9.5331e-09
-2.67711e-06
7.27393e-09
-2.67697e-06
5.05652e-09
-2.67599e-06
2.88193e-09
-2.67424e-06
7.51331e-10
-2.67183e-06
-1.31869e-09
-2.66884e-06
-3.3068e-09
-2.66513e-06
-5.2354e-09
-2.66052e-06
-7.14842e-09
-2.65497e-06
-9.06016e-09
-2.64848e-06
-1.09728e-08
-2.64105e-06
-1.28993e-08
-2.63269e-06
-1.48467e-08
-2.62338e-06
-1.68221e-08
-2.61313e-06
-1.88213e-08
-2.60189e-06
-2.08452e-08
-2.58967e-06
-2.2888e-08
-2.57644e-06
-2.49521e-08
-2.5622e-06
-2.70324e-08
-2.54693e-06
-2.9133e-08
-2.53063e-06
-3.12486e-08
-2.51327e-06
-3.33833e-08
-2.49486e-06
-3.55289e-08
-2.47539e-06
-3.76872e-08
-2.45486e-06
-3.98514e-08
-2.43327e-06
-4.20235e-08
-2.41061e-06
-4.41954e-08
-2.38685e-06
-4.63701e-08
-2.362e-06
-4.85385e-08
-2.33606e-06
-5.07072e-08
-2.30906e-06
-5.28681e-08
-2.28101e-06
-5.50283e-08
-2.2519e-06
-5.71754e-08
-2.22174e-06
-5.93145e-08
-2.19054e-06
-6.14342e-08
-2.1583e-06
-6.35394e-08
-2.12503e-06
-6.56214e-08
-2.09075e-06
-6.7682e-08
-2.05547e-06
-6.97105e-08
-2.01919e-06
-7.17071e-08
-1.98194e-06
-7.36645e-08
-1.94372e-06
-7.55717e-08
-1.90454e-06
-7.7425e-08
-1.86441e-06
-7.92168e-08
-1.82328e-06
-8.09458e-08
-1.78119e-06
-8.26611e-08
-1.73822e-06
-8.43899e-08
-1.69442e-06
-8.60958e-08
-1.64978e-06
-8.77575e-08
-1.60432e-06
-8.93998e-08
-1.55805e-06
-9.10071e-08
-1.511e-06
-9.258e-08
-1.4632e-06
-9.41102e-08
-1.41466e-06
-9.5595e-08
-1.36541e-06
-9.70356e-08
-1.31547e-06
-9.84268e-08
-1.26488e-06
-9.97695e-08
-1.21365e-06
-1.01054e-07
-1.16183e-06
-1.02281e-07
-1.10944e-06
-1.03434e-07
-1.05653e-06
-1.04516e-07
-1.00313e-06
-1.05513e-07
-9.49291e-07
-1.06437e-07
-8.95038e-07
-1.07278e-07
-8.4042e-07
-1.08054e-07
-7.85461e-07
-1.08759e-07
-7.30202e-07
-1.09407e-07
-6.74664e-07
-1.09997e-07
-6.1888e-07
-1.10537e-07
-5.62871e-07
-1.11026e-07
-5.06665e-07
-1.11467e-07
-4.50286e-07
-1.11847e-07
-3.93767e-07
-1.12173e-07
-3.37136e-07
-1.12433e-07
-2.8042e-07
-1.1264e-07
-2.23648e-07
-1.12786e-07
-1.66847e-07
-1.12876e-07
-1.10051e-07
-1.12898e-07
-5.32928e-08
-1.12842e-07
3.38097e-09
-1.12652e-07
5.98823e-08
-1.12251e-07
1.16001e-07
-1.11451e-07
1.7143e-07
-1.09931e-07
2.25617e-07
-1.07214e-07
2.77975e-07
-1.02294e-07
3.25338e-07
-9.35774e-08
-6.72712e-08
3.70568e-07
1.53042e-09
9.73191e-09
3.02399e-09
1.97985e-08
1.14263e-08
1.40036e-08
3.40296e-08
-7.66271e-09
7.3688e-08
-4.15391e-08
1.25698e-07
-7.82106e-08
1.81864e-07
-1.08396e-07
2.34633e-07
-1.27507e-07
2.80528e-07
-1.35192e-07
3.1806e-07
-1.33564e-07
3.48102e-07
-1.25471e-07
3.71605e-07
-1.13428e-07
3.9015e-07
-9.92763e-08
4.04414e-07
-8.4184e-08
4.1542e-07
-6.88286e-08
4.23331e-07
-5.35718e-08
4.28805e-07
-3.85813e-08
4.31785e-07
-2.39325e-08
4.32792e-07
-9.65744e-09
4.31792e-07
4.23761e-09
4.29439e-07
1.7781e-08
4.2577e-07
3.10548e-08
4.212e-07
4.41163e-08
4.15403e-07
5.69362e-08
4.08126e-07
6.93386e-08
3.98346e-07
8.09302e-08
3.85087e-07
9.10502e-08
3.67025e-07
9.87358e-08
3.43574e-07
1.02808e-07
3.14936e-07
1.02119e-07
2.83044e-07
9.58285e-08
2.50844e-07
8.36059e-08
2.21929e-07
6.57285e-08
1.99405e-07
4.29681e-08
1.85305e-07
1.66585e-08
1.79879e-07
-1.12712e-08
1.80173e-07
-3.62895e-08
1.77966e-07
-5.00406e-08
1.65954e-07
-4.71775e-08
1.41906e-07
-2.94692e-08
1.06698e-07
-2.71403e-09
6.03814e-08
2.87479e-08
-8.64873e-10
6.45686e-08
-8.5011e-08
1.03789e-07
-1.96199e-07
1.46212e-07
-3.3103e-07
1.92409e-07
-4.82926e-07
2.39468e-07
-6.4177e-07
2.83274e-07
-7.99406e-07
3.20998e-07
-9.50363e-07
3.50033e-07
-1.09009e-06
3.70173e-07
-1.21609e-06
3.8131e-07
-1.32689e-06
3.83874e-07
-1.42227e-06
3.7876e-07
-1.50345e-06
3.67261e-07
-1.57228e-06
3.50888e-07
-1.63156e-06
3.31022e-07
-1.68397e-06
3.09168e-07
-1.73132e-06
2.86915e-07
-1.77512e-06
2.65224e-07
-1.8166e-06
2.4469e-07
-1.85652e-06
2.25724e-07
-1.89519e-06
2.08496e-07
-1.93269e-06
1.93065e-07
-1.96921e-06
1.79285e-07
-2.00484e-06
1.66964e-07
-2.03938e-06
1.5596e-07
-2.07283e-06
1.46077e-07
-2.1051e-06
1.37114e-07
-2.13618e-06
1.2891e-07
-2.16598e-06
1.21329e-07
-2.1945e-06
1.14244e-07
-2.22168e-06
1.07569e-07
-2.24751e-06
1.01224e-07
-2.27196e-06
9.51552e-08
-2.29506e-06
8.93161e-08
-2.31676e-06
8.36864e-08
-2.33708e-06
7.82384e-08
-2.35601e-06
7.29648e-08
-2.37358e-06
6.78497e-08
-2.3898e-06
6.28928e-08
-2.4047e-06
5.80863e-08
-2.4183e-06
5.34329e-08
-2.43063e-06
4.89279e-08
-2.44174e-06
4.45715e-08
-2.45165e-06
4.03594e-08
-2.46042e-06
3.62874e-08
-2.46809e-06
3.23449e-08
-2.4747e-06
2.8537e-08
-2.48031e-06
2.48412e-08
-2.4849e-06
2.12861e-08
-2.48848e-06
1.78513e-08
-2.4911e-06
1.45246e-08
-2.49279e-06
1.12938e-08
-2.49358e-06
8.14634e-09
-2.49349e-06
5.07224e-09
-2.49256e-06
2.06853e-09
-2.49082e-06
-8.71189e-10
-2.48825e-06
-3.74489e-09
-2.48485e-06
-6.56672e-09
-2.48058e-06
-9.36143e-09
-2.47541e-06
-1.21635e-08
-2.46933e-06
-1.4972e-08
-2.46236e-06
-1.77994e-08
-2.45447e-06
-2.06469e-08
-2.44567e-06
-2.35315e-08
-2.43595e-06
-2.64477e-08
-2.42531e-06
-2.94036e-08
-2.41372e-06
-3.23889e-08
-2.40117e-06
-3.54092e-08
-2.38764e-06
-3.84555e-08
-2.37313e-06
-4.15334e-08
-2.35762e-06
-4.46349e-08
-2.34111e-06
-4.77654e-08
-2.32357e-06
-5.09165e-08
-2.30503e-06
-5.40907e-08
-2.28545e-06
-5.72798e-08
-2.26485e-06
-6.0485e-08
-2.24322e-06
-6.36985e-08
-2.22054e-06
-6.69178e-08
-2.19679e-06
-7.01367e-08
-2.172e-06
-7.33535e-08
-2.14615e-06
-7.65659e-08
-2.11926e-06
-7.97755e-08
-2.09134e-06
-8.29778e-08
-2.0624e-06
-8.61689e-08
-2.03242e-06
-8.93434e-08
-2.00142e-06
-9.24962e-08
-1.9694e-06
-9.56237e-08
-1.93637e-06
-9.87206e-08
-1.90234e-06
-1.01783e-07
-1.86732e-06
-1.04805e-07
-1.83132e-06
-1.07783e-07
-1.79434e-06
-1.10708e-07
-1.7564e-06
-1.13571e-07
-1.71752e-06
-1.16367e-07
-1.67769e-06
-1.19093e-07
-1.63691e-06
-1.21746e-07
-1.59521e-06
-1.24355e-07
-1.55265e-06
-1.26936e-07
-1.50924e-06
-1.29475e-07
-1.46501e-06
-1.31968e-07
-1.41996e-06
-1.3442e-07
-1.37413e-06
-1.36822e-07
-1.32753e-06
-1.39164e-07
-1.28018e-06
-1.41444e-07
-1.23211e-06
-1.43652e-07
-1.18334e-06
-1.45793e-07
-1.1339e-06
-1.47858e-07
-1.08381e-06
-1.49847e-07
-1.03311e-06
-1.51752e-07
-9.81829e-07
-1.53566e-07
-9.29991e-07
-1.55274e-07
-8.77643e-07
-1.56869e-07
-8.2482e-07
-1.58343e-07
-7.71567e-07
-1.59699e-07
-7.1792e-07
-1.60938e-07
-6.63919e-07
-1.62068e-07
-6.09598e-07
-1.63097e-07
-5.54992e-07
-1.64029e-07
-5.0013e-07
-1.64878e-07
-4.45041e-07
-1.65644e-07
-3.89754e-07
-1.66335e-07
-3.34292e-07
-1.66949e-07
-2.78684e-07
-1.67477e-07
-2.22958e-07
-1.67919e-07
-1.67144e-07
-1.6827e-07
-1.11266e-07
-1.68537e-07
-5.53508e-08
-1.68722e-07
5.867e-10
-1.68831e-07
5.65189e-08
-1.6885e-07
1.12404e-07
-1.68744e-07
1.68181e-07
-1.68447e-07
2.23756e-07
-1.67841e-07
2.7899e-07
-1.66702e-07
3.33693e-07
-1.6465e-07
3.87541e-07
-1.6108e-07
4.40138e-07
-1.54908e-07
4.90631e-07
-1.44088e-07
-1.18945e-07
5.42289e-07
-7.92627e-10
1.04079e-08
6.28872e-09
1.2341e-08
3.33133e-08
-1.31393e-08
8.41325e-08
-5.87022e-08
1.48518e-07
-1.05928e-07
2.11761e-07
-1.41594e-07
2.64705e-07
-1.61328e-07
3.03943e-07
-1.66865e-07
3.31046e-07
-1.62272e-07
3.48847e-07
-1.51475e-07
3.60713e-07
-1.37306e-07
3.68669e-07
-1.21482e-07
3.74394e-07
-1.04955e-07
3.78356e-07
-8.82285e-08
3.81162e-07
-7.15691e-08
3.82655e-07
-5.51251e-08
3.83148e-07
-3.89858e-08
3.82392e-07
-2.32113e-08
3.80689e-07
-7.84488e-09
3.77862e-07
7.0645e-09
3.74285e-07
2.14864e-08
3.6994e-07
3.54349e-08
3.65295e-07
4.89155e-08
3.60398e-07
6.19157e-08
3.55551e-07
7.43712e-08
3.50519e-07
8.61071e-08
3.45014e-07
9.67932e-08
3.38131e-07
1.05831e-07
3.28965e-07
1.12264e-07
3.16518e-07
1.14843e-07
3.00537e-07
1.12148e-07
2.81484e-07
1.02973e-07
2.60836e-07
8.67654e-08
2.40381e-07
6.37935e-08
2.21655e-07
3.58095e-08
2.02652e-07
8.10812e-09
1.75558e-07
-8.82728e-09
1.3385e-07
-8.04223e-09
7.76659e-08
9.31562e-09
8.08296e-09
4.03992e-08
-7.7236e-08
8.28724e-08
-1.80929e-07
1.32659e-07
-3.02507e-07
1.8632e-07
-4.39428e-07
2.40852e-07
-5.86207e-07
2.931e-07
-7.34499e-07
3.40804e-07
-8.77105e-07
3.82149e-07
-1.00809e-06
4.14341e-07
-1.12352e-06
4.365e-07
-1.22248e-06
4.49103e-07
-1.30504e-06
4.52816e-07
-1.37245e-06
4.48861e-07
-1.42696e-06
4.38521e-07
-1.47127e-06
4.23224e-07
-1.50824e-06
4.04395e-07
-1.54049e-06
3.83311e-07
-1.57032e-06
3.61016e-07
-1.59941e-06
3.38417e-07
-1.62867e-06
3.16337e-07
-1.6586e-06
2.95295e-07
-1.68938e-06
2.75589e-07
-1.72092e-06
2.57371e-07
-1.75301e-06
2.40688e-07
-1.78537e-06
2.25498e-07
-1.81773e-06
2.1171e-07
-1.84986e-06
1.99162e-07
-1.88153e-06
1.87689e-07
-1.91255e-06
1.7714e-07
-1.94274e-06
1.67359e-07
-1.972e-06
1.5821e-07
-2.00019e-06
1.49576e-07
-2.02726e-06
1.41359e-07
-2.05312e-06
1.33484e-07
-2.07775e-06
1.25886e-07
-2.10109e-06
1.18528e-07
-2.12312e-06
1.11377e-07
-2.14383e-06
1.04416e-07
-2.1632e-06
9.76337e-08
-2.18124e-06
9.10265e-08
-2.19796e-06
8.4592e-08
-2.21338e-06
7.83325e-08
-2.22751e-06
7.22495e-08
-2.24039e-06
6.63467e-08
-2.25204e-06
6.06256e-08
-2.26251e-06
5.5087e-08
-2.27182e-06
4.9729e-08
-2.28002e-06
4.45474e-08
-2.28715e-06
3.95373e-08
-2.29328e-06
3.46803e-08
-2.29841e-06
3.00005e-08
-2.30256e-06
2.54596e-08
-2.30573e-06
2.10754e-08
-2.30797e-06
1.68271e-08
-2.3093e-06
1.26985e-08
-2.30975e-06
8.67675e-09
-2.30932e-06
4.74517e-09
-2.30804e-06
8.98394e-10
-2.30592e-06
-2.88183e-09
-2.30295e-06
-6.59971e-09
-2.29911e-06
-1.02812e-08
-2.2944e-06
-1.39415e-08
-2.28882e-06
-1.7611e-08
-2.28237e-06
-2.12915e-08
-2.27505e-06
-2.50001e-08
-2.26685e-06
-2.87388e-08
-2.25778e-06
-3.2523e-08
-2.24781e-06
-3.63479e-08
-2.23695e-06
-4.02211e-08
-2.22517e-06
-4.41336e-08
-2.21246e-06
-4.80911e-08
-2.19882e-06
-5.2084e-08
-2.18422e-06
-5.61186e-08
-2.16867e-06
-6.01852e-08
-2.15215e-06
-6.42897e-08
-2.13464e-06
-6.84212e-08
-2.11616e-06
-7.25842e-08
-2.09669e-06
-7.67684e-08
-2.07623e-06