/*--------------------------------*- C++ -*----------------------------------*\
  =========                 |
  \\      /  F ield         | OpenFOAM: The Open Source CFD Toolbox
   \\    /   O peration     | Website:  https://openfoam.org
    \\  /    A nd           | Version:  13
     \\/     M anipulation  |
\*---------------------------------------------------------------------------*/
FoamFile
{
    format      ascii;
    class       volVectorField;
    location    "1900";
    object      U;
}
// * * * * * * * * * * * * * * * * * * * * * * * * * * * * * * * * * * * * * //

dimensions      [0 1 -1 0 0 0 0];

internalField   nonuniform List<vector> 
12225
(
(9.79633 0.0537988 0)
(9.3835 0.101284 0)
(8.96534 0.117716 0)
(8.5694 0.116808 0)
(8.2403 0.100964 0)
(7.96313 0.0777872 0)
(7.722 0.0507191 0)
(7.52324 0.0459142 0)
(7.3498 0.0390417 0)
(7.20275 0.0204718 0)
(7.0691 0.0140318 0)
(6.94804 0.0109032 0)
(6.83349 0.00778456 0)
(6.7392 0.014372 0)
(6.66449 0.0196788 0)
(6.61192 0.00991705 0)
(6.58083 0.00208565 0)
(6.56924 0.00113702 0)
(10.0621 0.0505003 0)
(10.1999 0.079922 0)
(10.2696 0.0784131 0)
(10.2746 0.075967 0)
(10.2286 0.0749052 0)
(10.158 0.0730925 0)
(10.0908 0.0697768 0)
(10.0224 0.064706 0)
(9.92825 0.0618053 0)
(9.8453 0.059973 0)
(9.76933 0.0562631 0)
(9.69468 0.0523677 0)
(9.62853 0.0479087 0)
(9.5624 0.0404832 0)
(9.49127 0.0330931 0)
(9.42021 0.0284594 0)
(9.35539 0.0229614 0)
(9.29032 0.0143165 0)
(10.021 0.0419138 0)
(10.0717 0.0684282 0)
(10.1204 0.072922 0)
(10.1574 0.0770765 0)
(10.1891 0.0795267 0)
(10.2151 0.0794892 0)
(10.2326 0.0769964 0)
(10.2445 0.0754286 0)
(10.2501 0.0732439 0)
(10.251 0.0708324 0)
(10.2489 0.070643 0)
(10.245 0.0699075 0)
(10.2403 0.0673177 0)
(10.2336 0.0637914 0)
(10.2253 0.0590901 0)
(10.2131 0.0526725 0)
(10.1981 0.0457126 0)
(10.178 0.0367442 0)
(10.0094 0.032035 0)
(10.0415 0.0576343 0)
(10.0728 0.0661503 0)
(10.0967 0.0719757 0)
(10.1177 0.0743801 0)
(10.1368 0.0728875 0)
(10.1529 0.0694164 0)
(10.1665 0.0678616 0)
(10.1799 0.066044 0)
(10.1919 0.0631107 0)
(10.2029 0.0615065 0)
(10.2137 0.0597045 0)
(10.2236 0.0571655 0)
(10.2324 0.0545647 0)
(10.2403 0.0513358 0)
(10.2467 0.0470678 0)
(10.2512 0.0423579 0)
(10.2533 0.0367975 0)
(10.0049 0.0252078 0)
(10.0292 0.0513512 0)
(10.0532 0.0609668 0)
(10.072 0.0663701 0)
(10.0886 0.0686015 0)
(10.1033 0.0678455 0)
(10.1155 0.0654155 0)
(10.1257 0.0639257 0)
(10.1352 0.0623092 0)
(10.1436 0.0600054 0)
(10.1516 0.058372 0)
(10.1596 0.056604 0)
(10.1673 0.0543333 0)
(10.1745 0.0517939 0)
(10.1814 0.0487103 0)
(10.1876 0.0449093 0)
(10.1928 0.0407563 0)
(10.1967 0.0363432 0)
(10.0033 0.0204646 0)
(10.0218 0.0450511 0)
(10.0418 0.0551585 0)
(10.058 0.0604694 0)
(10.0724 0.063288 0)
(10.0852 0.0634714 0)
(10.0962 0.0620457 0)
(10.1058 0.0606988 0)
(10.1142 0.0590505 0)
(10.1216 0.0570053 0)
(10.1287 0.0552298 0)
(10.1356 0.0532529 0)
(10.1422 0.0508794 0)
(10.1485 0.0482406 0)
(10.1543 0.0452067 0)
(10.1595 0.0417502 0)
(10.1639 0.038078 0)
(10.1674 0.0345036 0)
(10.0025 0.0169942 0)
(10.017 0.039703 0)
(10.0341 0.0500113 0)
(10.0491 0.0558239 0)
(10.0622 0.0589371 0)
(10.0741 0.0597794 0)
(10.0845 0.0589212 0)
(10.0936 0.0576659 0)
(10.1015 0.0560652 0)
(10.1087 0.0542395 0)
(10.1155 0.0525033 0)
(10.122 0.0505602 0)
(10.1283 0.048289 0)
(10.1341 0.0457359 0)
(10.1395 0.0428596 0)
(10.1443 0.0396883 0)
(10.1483 0.0363698 0)
(10.1519 0.0332324 0)
(10.0019 0.0141274 0)
(10.0132 0.0350869 0)
(10.0282 0.0453824 0)
(10.042 0.0512562 0)
(10.0541 0.0543525 0)
(10.0653 0.055506 0)
(10.0753 0.055085 0)
(10.0842 0.0540578 0)
(10.0919 0.0526532 0)
(10.099 0.0510415 0)
(10.1056 0.0493391 0)
(10.112 0.0474142 0)
(10.118 0.0451919 0)
(10.1236 0.0426962 0)
(10.1287 0.0399428 0)
(10.1334 0.0369948 0)
(10.1374 0.033964 0)
(10.1411 0.0311367 0)
(10.0015 0.0117902 0)
(10.0101 0.0306949 0)
(10.0234 0.0406312 0)
(10.0362 0.0463077 0)
(10.0474 0.0494307 0)
(10.0578 0.0507813 0)
(10.0675 0.0508494 0)
(10.0762 0.0501657 0)
(10.084 0.0490219 0)
(10.091 0.0475873 0)
(10.0976 0.0459724 0)
(10.1039 0.0441076 0)
(10.1098 0.0419714 0)
(10.1153 0.0395993 0)
(10.1203 0.0370177 0)
(10.1249 0.0342822 0)
(10.129 0.0314948 0)
(10.1327 0.0288707 0)
(10.0012 0.00991728 0)
(10.0079 0.0266469 0)
(10.0194 0.0359571 0)
(10.0312 0.0416174 0)
(10.0419 0.0448849 0)
(10.0517 0.0464727 0)
(10.061 0.0467605 0)
(10.0695 0.0462459 0)
(10.0771 0.0452555 0)
(10.0842 0.0439757 0)
(10.0908 0.0424498 0)
(10.097 0.040663 0)
(10.1028 0.038627 0)
(10.1082 0.0363763 0)
(10.1131 0.0339397 0)
(10.1177 0.0313772 0)
(10.1217 0.0287812 0)
(10.1255 0.0263009 0)
(10.0009 0.00836519 0)
(10.0063 0.0230074 0)
(10.0161 0.0314922 0)
(10.0268 0.0369805 0)
(10.0368 0.0402742 0)
(10.0463 0.0419788 0)
(10.0552 0.0424769 0)
(10.0635 0.0421547 0)
(10.071 0.0413234 0)
(10.078 0.0401656 0)
(10.0846 0.0387381 0)
(10.0907 0.0370481 0)
(10.0964 0.0351032 0)
(10.1017 0.032969 0)
(10.1065 0.0306801 0)
(10.111 0.0283013 0)
(10.115 0.0258872 0)
(10.1188 0.0235658 0)
(10.0007 0.00710413 0)
(10.0053 0.0198621 0)
(10.0137 0.0275042 0)
(10.0232 0.032678 0)
(10.0326 0.0358917 0)
(10.0415 0.0376498 0)
(10.0501 0.0382899 0)
(10.0582 0.0381334 0)
(10.0656 0.0374546 0)
(10.0726 0.0364262 0)
(10.079 0.0351133 0)
(10.0851 0.0335271 0)
(10.0907 0.0317186 0)
(10.0959 0.0297126 0)
(10.1007 0.0275779 0)
(10.1051 0.0253425 0)
(10.109 0.0230773 0)
(10.1128 0.0208619 0)
(10.0006 0.0060285 0)
(10.0045 0.0171981 0)
(10.0116 0.0239343 0)
(10.0202 0.0287007 0)
(10.0288 0.0317265 0)
(10.0373 0.0334268 0)
(10.0455 0.034115 0)
(10.0532 0.0340542 0)
(10.0605 0.0334868 0)
(10.0673 0.0325624 0)
(10.0737 0.031349 0)
(10.0796 0.0298791 0)
(10.0851 0.0281997 0)
(10.0902 0.0263349 0)
(10.0949 0.0243461 0)
(10.0993 0.0222667 0)
(10.1032 0.020136 0)
(10.1069 0.0180633 0)
(10.0005 0.00496305 0)
(10.0038 0.0144115 0)
(10.0098 0.0200935 0)
(10.0173 0.0242858 0)
(10.0252 0.0269988 0)
(10.033 0.0285643 0)
(10.0406 0.0292407 0)
(10.048 0.0292495 0)
(10.055 0.0287711 0)
(10.0616 0.0279521 0)
(10.0677 0.0268377 0)
(10.0735 0.0255077 0)
(10.0789 0.0239604 0)
(10.0839 0.022278 0)
(10.0885 0.0204535 0)
(10.0927 0.0185624 0)
(10.0965 0.0165974 0)
(10.1002 0.0146905 0)
(10.0004 0.00390223 0)
(10.0031 0.0115296 0)
(10.0082 0.0160317 0)
(10.0147 0.0194914 0)
(10.0218 0.0217729 0)
(10.0289 0.0231017 0)
(10.036 0.0236981 0)
(10.0429 0.0237156 0)
(10.0495 0.0233056 0)
(10.0558 0.0225619 0)
(10.0616 0.0215721 0)
(10.0672 0.020362 0)
(10.0723 0.0189962 0)
(10.0771 0.0174747 0)
(10.0816 0.0158628 0)
(10.0856 0.0141515 0)
(10.0894 0.0124093 0)
(10.093 0.0106771 0)
(10.0003 0.00283951 0)
(10.0026 0.00858053 0)
(10.0069 0.0117881 0)
(10.0125 0.0143466 0)
(10.0188 0.0160546 0)
(10.0253 0.0170314 0)
(10.0318 0.0174526 0)
(10.0382 0.0174108 0)
(10.0444 0.0170207 0)
(10.0503 0.016345 0)
(10.0559 0.0154655 0)
(10.0611 0.0144025 0)
(10.066 0.0132095 0)
(10.0706 0.0118899 0)
(10.0748 0.0104873 0)
(10.0787 0.00900842 0)
(10.0823 0.00748472 0)
(10.0858 0.00599388 0)
(10.0002 0.00176984 0)
(10.0022 0.00553689 0)
(10.0059 0.00732841 0)
(10.0108 0.00881908 0)
(10.0164 0.00978726 0)
(10.0223 0.0102924 0)
(10.0283 0.0104226 0)
(10.0343 0.0102546 0)
(10.0401 0.00982605 0)
(10.0457 0.00921385 0)
(10.0509 0.0084288 0)
(10.0559 0.00753649 0)
(10.0606 0.00651831 0)
(10.0649 0.005432 0)
(10.0689 0.00425361 0)
(10.0726 0.00304054 0)
(10.0761 0.00176268 0)
(10.0793 0.000536953 0)
(10.0002 0.000657713 0)
(10.002 0.00230059 0)
(10.0053 0.00251535 0)
(10.0097 0.00275559 0)
(10.0149 0.00282078 0)
(10.0204 0.00270486 0)
(10.026 0.0024429 0)
(10.0317 0.00205619 0)
(10.0372 0.0015576 0)
(10.0424 0.000969322 0)
(10.0475 0.000301317 0)
(10.0522 -0.000432172 0)
(10.0566 -0.00122976 0)
(10.0608 -0.00207971 0)
(10.0646 -0.00297982 0)
(10.0682 -0.00391675 0)
(10.0714 -0.00488995 0)
(10.0745 -0.00583546 0)
(10.0002 -0.000582308 0)
(10.0019 -0.00138458 0)
(10.0051 -0.00298955 0)
(10.0096 -0.00419522 0)
(10.0146 -0.00519996 0)
(10.02 -0.00605229 0)
(10.0256 -0.0068026 0)
(10.0311 -0.00745142 0)
(10.0365 -0.00805272 0)
(10.0416 -0.00860013 0)
(10.0465 -0.00914048 0)
(10.0511 -0.00966505 0)
(10.0554 -0.0102095 0)
(10.0594 -0.0107629 0)
(10.0631 -0.0113492 0)
(10.0665 -0.0119549 0)
(10.0696 -0.0125946 0)
(10.0726 -0.0132119 0)
(10.0002 -0.00181581 0)
(10.0022 -0.00509495 0)
(10.0058 -0.00850002 0)
(10.0107 -0.0110965 0)
(10.0162 -0.0130838 0)
(10.022 -0.014623 0)
(10.0278 -0.0157757 0)
(10.0335 -0.016648 0)
(10.0391 -0.0172686 0)
(10.0444 -0.017744 0)
(10.0494 -0.0180854 0)
(10.054 -0.0183754 0)
(10.0583 -0.0186089 0)
(10.0622 -0.0188527 0)
(10.0659 -0.0190899 0)
(10.0692 -0.0193696 0)
(10.0722 -0.0196661 0)
(10.075 -0.019978 0)
(10.0003 -0.00297897 0)
(10.0026 -0.00852854 0)
(10.007 -0.0135323 0)
(10.0126 -0.0172448 0)
(10.0188 -0.0199751 0)
(10.0252 -0.0219913 0)
(10.0315 -0.0234045 0)
(10.0376 -0.0243511 0)
(10.0435 -0.0249144 0)
(10.0491 -0.0252316 0)
(10.0542 -0.0253436 0)
(10.059 -0.025354 0)
(10.0633 -0.0252777 0)
(10.0673 -0.0252008 0)
(10.0709 -0.0251186 0)
(10.0741 -0.0250877 0)
(10.0771 -0.0250914 0)
(10.0798 -0.0251247 0)
(10.0003 -0.00426371 0)
(10.0033 -0.0121776 0)
(10.0088 -0.0187388 0)
(10.0155 -0.0233756 0)
(10.0226 -0.0266961 0)
(10.0297 -0.0290536 0)
(10.0366 -0.0306264 0)
(10.0433 -0.0315333 0)
(10.0496 -0.0319761 0)
(10.0554 -0.0320593 0)
(10.0608 -0.0319112 0)
(10.0657 -0.0315729 0)
(10.0701 -0.0311664 0)
(10.0741 -0.0307112 0)
(10.0776 -0.0303113 0)
(10.0808 -0.0299454 0)
(10.0837 -0.0296804 0)
(10.0863 -0.0294427 0)
(10.0005 -0.00577468 0)
(10.0045 -0.0162833 0)
(10.0114 -0.0243036 0)
(10.0196 -0.0296533 0)
(10.0276 -0.0333916 0)
(10.0354 -0.035979 0)
(10.043 -0.0375561 0)
(10.0501 -0.0383207 0)
(10.0568 -0.0385235 0)
(10.0629 -0.0383432 0)
(10.0684 -0.0378513 0)
(10.0734 -0.0371419 0)
(10.0779 -0.0363192 0)
(10.0818 -0.0354742 0)
(10.0852 -0.0346826 0)
(10.0882 -0.0339836 0)
(10.0909 -0.033409 0)
(10.0933 -0.0329335 0)
(10.0006 -0.00761884 0)
(10.0063 -0.0210786 0)
(10.0152 -0.0303323 0)
(10.0246 -0.0361209 0)
(10.0335 -0.0400842 0)
(10.042 -0.0427517 0)
(10.0501 -0.0441874 0)
(10.0577 -0.0446611 0)
(10.0646 -0.0445465 0)
(10.0708 -0.0440492 0)
(10.0765 -0.0431955 0)
(10.0816 -0.0420901 0)
(10.0861 -0.0408441 0)
(10.0899 -0.0395907 0)
(10.0932 -0.0384142 0)
(10.0961 -0.0373941 0)
(10.0985 -0.0365341 0)
(10.1008 -0.035843 0)
(10.0009 -0.00987953 0)
(10.0088 -0.0265068 0)
(10.02 -0.0360561 0)
(10.0305 -0.0417643 0)
(10.0401 -0.0458342 0)
(10.0492 -0.0486061 0)
(10.0579 -0.0499858 0)
(10.0659 -0.0502718 0)
(10.0731 -0.0499646 0)
(10.0796 -0.0492722 0)
(10.0855 -0.0481287 0)
(10.0907 -0.0466006 0)
(10.0952 -0.0448948 0)
(10.099 -0.0431637 0)
(10.1022 -0.0415507 0)
(10.1048 -0.0401474 0)
(10.107 -0.0389953 0)
(10.109 -0.0380383 0)
(10.0013 -0.0126188 0)
(10.0121 -0.0320016 0)
(10.0265 -0.0414161 0)
(10.0377 -0.0473848 0)
(10.0476 -0.0514637 0)
(10.0574 -0.0538465 0)
(10.0668 -0.0547382 0)
(10.0752 -0.0545529 0)
(10.0825 -0.0538981 0)
(10.0893 -0.0530519 0)
(10.0955 -0.0517642 0)
(10.1011 -0.0499965 0)
(10.1057 -0.047957 0)
(10.1096 -0.0459013 0)
(10.1127 -0.0440099 0)
(10.1153 -0.0423741 0)
(10.1176 -0.041091 0)
(10.1196 -0.0399751 0)
(10.0027 -0.0172331 0)
(10.018 -0.0375214 0)
(10.035 -0.0450779 0)
(10.0481 -0.0512354 0)
(10.0582 -0.0564512 0)
(10.0688 -0.0594141 0)
(10.0792 -0.0599528 0)
(10.0886 -0.059043 0)
(10.0969 -0.0581055 0)
(10.1051 -0.0571287 0)
(10.1132 -0.0552151 0)
(10.1206 -0.052529 0)
(10.1271 -0.049744 0)
(10.1327 -0.0470979 0)
(10.1378 -0.0447459 0)
(10.1426 -0.0428673 0)
(10.1472 -0.0415477 0)
(10.1513 -0.0405246 0)
(10.0072 -0.025915 0)
(10.0395 -0.0470338 0)
(10.0619 -0.0530399 0)
(10.0864 -0.0567672 0)
(10.111 -0.0615709 0)
(10.1386 -0.0649433 0)
(10.1661 -0.0660779 0)
(10.1919 -0.0657875 0)
(10.216 -0.0656427 0)
(10.2389 -0.0658003 0)
(10.2598 -0.0647155 0)
(10.2775 -0.0620363 0)
(10.2921 -0.0588116 0)
(10.3036 -0.0557191 0)
(10.3121 -0.0529973 0)
(10.3173 -0.050719 0)
(10.3201 -0.0488654 0)
(10.3204 -0.047388 0)
(10.0465 -0.0383072 0)
(10.1679 -0.0668872 0)
(10.2732 -0.074465 0)
(10.354 -0.0781802 0)
(10.4134 -0.0813609 0)
(10.453 -0.0828787 0)
(10.4733 -0.0818692 0)
(10.4806 -0.0789927 0)
(10.4728 -0.0759669 0)
(10.45 -0.0739217 0)
(10.4222 -0.0711919 0)
(10.3955 -0.0663776 0)
(10.3622 -0.0609389 0)
(10.3203 -0.0554808 0)
(10.2742 -0.0504996 0)
(10.2247 -0.0459436 0)
(10.1755 -0.042056 0)
(10.1256 -0.0387546 0)
(9.87407 -0.0391588 0)
(9.60252 -0.0792415 0)
(9.30384 -0.093133 0)
(8.99256 -0.0959014 0)
(8.69546 -0.0936246 0)
(8.42006 -0.0881266 0)
(8.17053 -0.0814178 0)
(7.94687 -0.0732693 0)
(7.75555 -0.0618157 0)
(7.58849 -0.0520765 0)
(7.43695 -0.0469191 0)
(7.30168 -0.0405404 0)
(7.19165 -0.0311828 0)
(7.10719 -0.0220808 0)
(7.04074 -0.0144489 0)
(6.99172 -0.00852572 0)
(6.95185 -0.00374859 0)
(6.92527 0.000215809 0)
(-0.00317702 0.00723546 -7.77251e-19)
(-0.0124704 0.0128349 8.92907e-19)
(-0.0259557 0.0146257 -6.08717e-19)
(-0.0417904 0.0131858 -1.80786e-19)
(-0.0575341 0.00800863 2.65845e-19)
(-0.0665401 -0.000430537 -6.47125e-20)
(-0.0602239 -0.0112646 -6.11049e-20)
(-0.0400341 -0.0237361 3.01904e-19)
(-0.00952243 -0.0350502 -2.08152e-19)
(0.0274976 -0.0426498 6.17228e-20)
(0.0686298 -0.0457832 1.79085e-20)
(0.111942 -0.0452592 -1.7917e-19)
(0.153967 -0.0420243 2.37213e-19)
(0.192088 -0.0369182 2.32346e-19)
(0.22497 -0.0305562 1.93612e-20)
(0.251821 -0.0234141 7.93897e-20)
(0.272255 -0.0157713 3.05387e-20)
(0.285949 -0.00781655 5.19582e-20)
(0.292882 0.000541439 7.661e-20)
(0.292515 0.00934219 8.1823e-21)
(0.284414 0.0182865 -2.72626e-20)
(0.268917 0.0266308 2.26524e-19)
(0.246434 0.0336289 -2.96438e-20)
(0.217701 0.0384735 2.52691e-19)
(0.183803 0.0405032 -5.68008e-20)
(0.146393 0.0390629 2.41526e-19)
(0.107517 0.0338772 1.4135e-19)
(0.0697176 0.0250564 1.11328e-19)
(0.0356739 0.0137079 -5.64461e-19)
(0.00831255 0.00264369 -1.37151e-19)
(-0.0103565 -0.00380021 -1.05148e-18)
(-0.0232657 -0.00571037 5.55755e-19)
(-0.0320857 -0.00619751 3.64098e-19)
(-0.0369202 -0.00719015 -4.34632e-19)
(-0.0372621 -0.00961036 -6.56753e-19)
(-0.0316686 -0.0134036 -4.46597e-20)
(-0.0187609 -0.0180646 2.80907e-19)
(0.00235532 -0.0238348 6.77956e-19)
(0.0299118 -0.0285884 3.52895e-19)
(0.0612344 -0.0302192 5.93822e-19)
(0.0911754 -0.0273171 1.89035e-19)
(0.115062 -0.0209178 4.36414e-20)
(0.130119 -0.0132885 -5.46869e-19)
(0.13679 -0.00703451 -1.10228e-19)
(0.137813 -0.00356735 2.26603e-19)
(0.135651 -0.00418739 1.16172e-20)
(0.132991 -0.0106489 5.42749e-19)
(0.12875 -0.0213709 1.76349e-19)
(0.116236 -0.0285035 7.31389e-20)
(0.0878984 -0.0206822 -6.51445e-19)
(0.0373163 -0.000879885 6.38127e-19)
(-0.0377694 0.0143518 4.51564e-20)
(-0.134494 0.0354128 3.6033e-19)
(-0.243723 0.0608803 1.91091e-19)
(-0.365461 0.0865622 5.59523e-20)
(-0.494885 0.108559 1.06756e-19)
(-0.629824 0.118439 1.25609e-19)
(-0.766926 0.119282 -1.23349e-19)
(-0.899173 0.117997 4.51783e-20)
(-1.02621 0.11337 4.81445e-20)
(-1.14695 0.104835 -1.09893e-19)
(-1.25932 0.0954831 -6.91685e-20)
(-1.36355 0.0871364 5.20431e-20)
(-1.45985 0.0802086 6.07331e-20)
(-1.54871 0.0724806 1.67836e-20)
(-1.63057 0.0651628 -6.35913e-20)
(-1.70615 0.059894 6.92313e-21)
(-1.77617 0.0549228 3.25487e-21)
(-1.84124 0.0504954 1.61728e-20)
(-1.90181 0.0465346 7.87629e-20)
(-1.95836 0.0430196 -3.91534e-21)
(-2.0113 0.0398272 -5.67863e-20)
(-2.06095 0.0369704 6.11583e-20)
(-2.10761 0.0343393 2.22875e-20)
(-2.1515 0.0319525 -3.60743e-20)
(-2.19283 0.0297174 2.99961e-20)
(-2.23174 0.0276636 -4.6191e-21)
(-2.26836 0.0257237 5.79059e-20)
(-2.30277 0.0239268 2.66868e-20)
(-2.33508 0.022217 -3.94188e-20)
(-2.36539 0.0206205 -1.12604e-20)
(-2.39376 0.0190991 2.22749e-21)
(-2.42028 0.0176719 4.42284e-20)
(-2.445 0.016312 5.48566e-20)
(-2.46801 0.0150274 4.8228e-20)
(-2.48936 0.0138014 -4.88656e-20)
(-2.50914 0.0126316 1.03742e-19)
(-2.52742 0.0115109 -4.10911e-21)
(-2.54428 0.0104392 7.39882e-20)
(-2.55977 0.0094043 -1.04503e-19)
(-2.5739 0.00842701 -5.58743e-20)
(-2.58671 0.007484 4.68114e-20)
(-2.59823 0.00657007 6.78229e-20)
(-2.6085 0.00567446 -1.02496e-20)
(-2.61752 0.00478553 -6.32464e-20)
(-2.62531 0.00389906 -6.25513e-20)
(-2.63185 0.0030033 6.39027e-20)
(-2.63712 0.00210369 -3.42867e-20)
(-2.64108 0.00120422 -8.14583e-20)
(-2.64369 0.000362395 -3.53588e-20)
(-2.64492 -0.000336314 8.69123e-20)
(-2.64521 -0.000909475 4.34906e-20)
(-2.64456 -0.00146337 6.47907e-20)
(-2.64299 -0.001994 -3.94904e-20)
(-2.64053 -0.00251432 1.25408e-20)
(-2.63717 -0.00302281 4.34369e-21)
(-2.63292 -0.00353856 -7.94049e-21)
(-2.62776 -0.00404902 -1.71529e-20)
(-2.62168 -0.00456608 -2.56811e-20)
(-2.61465 -0.00507591 -4.16464e-20)
(-2.60666 -0.00559042 -5.68659e-20)
(-2.59769 -0.00609611 2.99965e-20)
(-2.58773 -0.00660518 -4.17083e-20)
(-2.57676 -0.00710405 -4.0632e-20)
(-2.56476 -0.00760486 7.1299e-20)
(-2.55173 -0.00809344 -4.19379e-21)
(-2.53766 -0.00858125 -4.53235e-20)
(-2.52254 -0.00905588 -4.70178e-20)
(-2.50638 -0.00952937 4.31823e-20)
(-2.48915 -0.00999207 3.2135e-21)
(-2.47084 -0.0104516 1.2833e-20)
(-2.45143 -0.0108987 -8.3546e-21)
(-2.43092 -0.0113412 -2.42701e-20)
(-2.40933 -0.0117697 2.03894e-20)
(-2.38667 -0.0121942 -1.7872e-20)
(-2.36294 -0.0126053 1.60301e-20)
(-2.33814 -0.0130114 2.15109e-20)
(-2.31228 -0.0134064 -7.55083e-21)
(-2.28534 -0.0137993 2.06391e-20)
(-2.25734 -0.0141905 -1.78393e-20)
(-2.22826 -0.0145836 4.20317e-20)
(-2.19812 -0.0149582 -3.54124e-21)
(-2.16692 -0.0153089 -4.12557e-20)
(-2.13467 -0.0156302 9.22514e-21)
(-2.10141 -0.015897 -2.02923e-21)
(-2.06714 -0.0160797 8.96962e-21)
(-2.03193 -0.0161169 8.47016e-21)
(-1.99583 -0.0159629 -3.54077e-21)
(-1.95885 -0.0158571 5.12338e-22)
(-1.92086 -0.0160785 -5.84882e-22)
(-1.88187 -0.0164119 1.84747e-20)
(-1.84193 -0.0167159 2.18548e-20)
(-1.80107 -0.0170316 -1.40575e-20)
(-1.75929 -0.0173494 -1.71665e-20)
(-1.71661 -0.0176687 -3.36903e-20)
(-1.67305 -0.0179913 -5.27332e-20)
(-1.62862 -0.0183125 -4.21436e-20)
(-1.58334 -0.0186393 -7.15742e-20)
(-1.53725 -0.018963 3.6858e-20)
(-1.49033 -0.0192925 3.55149e-20)
(-1.44265 -0.0196164 6.31958e-20)
(-1.39419 -0.0199448 4.82429e-20)
(-1.34501 -0.0202646 1.40489e-19)
(-1.29512 -0.0205877 9.7211e-21)
(-1.24458 -0.020901 6.36066e-21)
(-1.19339 -0.0212184 -1.12971e-19)
(-1.14164 -0.0215277 1.8204e-19)
(-1.08929 -0.0218423 -1.09987e-19)
(-1.03645 -0.0221522 1.55394e-20)
(-0.983065 -0.0224681 5.70582e-20)
(-0.929226 -0.0227848 2.11215e-20)
(-0.874909 -0.0231038 5.45123e-20)
(-0.820156 -0.023429 2.6135e-19)
(-0.764978 -0.0237537 1.30351e-19)
(-0.709398 -0.0240818 6.22351e-20)
(-0.653442 -0.0244098 8.90736e-20)
(-0.597136 -0.0247414 2.54067e-19)
(-0.540505 -0.0250754 -1.12293e-20)
(-0.483573 -0.0254164 2.98626e-19)
(-0.426366 -0.0257608 4.35094e-19)
(-0.368909 -0.0261123 4.27414e-19)
(-0.311235 -0.0264617 -1.5714e-20)
(-0.253407 -0.0267988 4.10918e-20)
(-0.195521 -0.0271193 -9.81755e-20)
(-0.137734 -0.0273787 -1.2446e-18)
(-0.0803697 -0.0274444 6.23199e-19)
(-0.0237182 -0.0270619 4.61685e-19)
(0.029155 -0.0254171 -8.88957e-19)
(0.0872918 -0.0223805 -8.05806e-19)
(0.105226 -0.0105077 1.17891e-18)
(-1.15092e-05 0.0200292 2.17385e-18)
(-0.00693038 0.0370843 -1.65598e-18)
(-0.0139417 0.040917 -6.68422e-19)
(-0.0198286 0.036415 1.71009e-18)
(-0.0159797 0.0230559 4.62441e-19)
(0.0060612 -0.00449372 2.60576e-19)
(0.0382489 -0.0443916 -1.59813e-19)
(0.0772616 -0.082882 -5.40282e-19)
(0.120949 -0.111799 -2.85868e-20)
(0.166051 -0.128464 -3.45656e-19)
(0.209437 -0.133334 1.76679e-20)
(0.248936 -0.12901 -4.44343e-21)
(0.283697 -0.118362 9.68647e-20)
(0.313419 -0.103795 1.36031e-20)
(0.338084 -0.0870679 -2.91447e-20)
(0.357892 -0.0693639 -2.4088e-19)
(0.37311 -0.0513023 -5.13639e-20)
(0.384058 -0.0332732 2.22544e-19)
(0.390922 -0.0153845 -2.59752e-19)
(0.394377 0.00241348 7.34648e-20)
(0.394692 0.0202155 6.60295e-21)
(0.391651 0.0376829 1.43837e-19)
(0.384778 0.054544 1.68889e-19)
(0.373452 0.0701351 1.46886e-19)
(0.356975 0.083591 1.96071e-19)
(0.334796 0.0936904 -1.15759e-19)
(0.306612 0.0991629 3.06761e-20)
(0.272693 0.0987646 4.16693e-20)
(0.234006 0.0919743 -1.77508e-19)
(0.192469 0.0793083 -1.4252e-19)
(0.151031 0.0627662 -2.76445e-19)
(0.113169 0.044535 -1.05552e-19)
(0.0823829 0.0262582 -9.91452e-19)
(0.0618429 0.00840202 5.10043e-19)
(0.052929 -0.0100141 -8.63178e-19)
(0.0567428 -0.0294942 9.44608e-19)
(0.0714035 -0.0489159 -7.53327e-19)
(0.0943362 -0.0673674 1.66782e-19)
(0.11991 -0.0788123 3.43014e-19)
(0.140967 -0.0773374 -2.26725e-19)
(0.153092 -0.0640101 1.7487e-19)
(0.155524 -0.0439931 -7.18391e-20)
(0.14872 -0.0234198 -3.0069e-19)
(0.133565 -0.00910955 -9.50275e-19)
(0.10952 -0.000919989 -7.49252e-19)
(0.0721953 0.00820277 1.00593e-20)
(0.0160965 0.0245638 -1.19202e-18)
(-0.0756586 0.0575287 -2.49277e-19)
(-0.199254 0.103094 5.56065e-19)
(-0.332521 0.149961 5.93259e-19)
(-0.473901 0.192763 1.07022e-19)
(-0.620407 0.227405 -3.7643e-20)
(-0.768597 0.253933 -3.33368e-20)
(-0.914279 0.271108 -9.42626e-20)
(-1.05408 0.278673 -6.54008e-20)
(-1.18396 0.278158 -1.58048e-19)
(-1.30342 0.270419 -1.75139e-19)
(-1.41111 0.257209 -3.74608e-20)
(-1.50673 0.241048 2.4009e-20)
(-1.59161 0.223341 -1.18524e-19)
(-1.66683 0.205182 8.90306e-20)
(-1.73384 0.187468 -3.78351e-20)
(-1.79388 0.170855 -1.49401e-19)
(-1.84811 0.15577 1.13971e-20)
(-1.89796 0.142142 1.06949e-19)
(-1.94378 0.129975 -4.10238e-20)
(-1.98639 0.119289 4.52737e-21)
(-2.02625 0.109819 -9.47647e-20)
(-2.06372 0.101452 3.26509e-20)
(-2.09908 0.0939867 -5.57164e-20)
(-2.13253 0.087328 9.97577e-22)
(-2.16422 0.0812884 -6.91079e-20)
(-2.19427 0.0758092 2.26837e-21)
(-2.22272 0.0707441 -4.11509e-20)
(-2.24966 0.0660745 5.46387e-20)
(-2.27511 0.061687 -9.45397e-20)
(-2.29914 0.0575906 1.23357e-20)
(-2.32174 0.0537065 -9.58766e-20)
(-2.34296 0.0500523 3.80413e-21)
(-2.36282 0.0465645 7.58936e-20)
(-2.38135 0.0432641 1.49006e-20)
(-2.39859 0.040109 -4.45934e-20)
(-2.41456 0.0371173 -6.66674e-20)
(-2.4293 0.0342621 3.82621e-20)
(-2.44285 0.031551 1.07676e-19)
(-2.45523 0.028966 -3.40601e-20)
(-2.4665 0.0265011 -1.05877e-21)
(-2.47669 0.0241483 -2.85989e-21)
(-2.48588 0.0218986 6.84174e-20)
(-2.49409 0.0197556 2.39159e-19)
(-2.50132 0.0177235 5.19143e-20)
(-2.5076 0.0157908 9.71458e-20)
(-2.51293 0.0139468 -2.09982e-19)
(-2.51734 0.0121705 -1.00688e-19)
(-2.52086 0.0104496 6.52774e-20)
(-2.52353 0.00877184 1.32369e-19)
(-2.52539 0.00712531 -7.25193e-20)
(-2.52651 0.00551022 -2.9405e-20)
(-2.52697 0.00392923 -5.05043e-20)
(-2.52686 0.00242368 7.31109e-20)
(-2.52629 0.00104725 -1.01188e-19)
(-2.52488 -0.000214454 -7.58395e-20)
(-2.5226 -0.00144332 -4.87427e-20)
(-2.51943 -0.00265034 1.60618e-19)
(-2.51539 -0.00385463 -1.80692e-20)
(-2.51047 -0.00505273 1.12614e-20)
(-2.50467 -0.00625728 5.85033e-20)
(-2.49797 -0.00745594 1.25673e-19)
(-2.49036 -0.00865792 -1.71138e-20)
(-2.48181 -0.0098508 -4.79481e-20)
(-2.47231 -0.0110445 3.7773e-21)
(-2.46184 -0.0122276 -8.7982e-20)
(-2.45039 -0.0134111 9.5e-20)
(-2.43794 -0.0145835 3.54315e-20)
(-2.42448 -0.0157555 2.7763e-20)
(-2.41 -0.0169135 6.85594e-20)
(-2.3945 -0.0180659 8.18625e-20)
(-2.37796 -0.0192009 -4.25028e-20)
(-2.36037 -0.0203271 2.73894e-20)
(-2.34174 -0.021435 3.92715e-20)
(-2.32203 -0.0225313 4.70225e-20)
(-2.30123 -0.0236062 -5.34603e-21)
(-2.27935 -0.0246683 -2.04401e-21)
(-2.2564 -0.0257082 -3.69461e-20)
(-2.23238 -0.0267354 -3.36585e-20)
(-2.20729 -0.027738 -3.55228e-20)
(-2.18114 -0.0287237 3.41706e-20)
(-2.15393 -0.0296826 -4.72831e-21)
(-2.12564 -0.0306207 -1.93353e-20)
(-2.0963 -0.0315309 -3.87791e-21)
(-2.0659 -0.0324161 -2.09335e-20)
(-2.03445 -0.0332722 -2.5586e-20)
(-2.00196 -0.0341019 -1.19942e-20)
(-1.96844 -0.0349045 5.69929e-21)
(-1.9339 -0.0356739 3.8834e-21)
(-1.89833 -0.0364237 3.45453e-21)
(-1.86175 -0.0371585 -2.50718e-21)
(-1.82411 -0.0378866 6.68814e-21)
(-1.7854 -0.0385966 -1.17032e-22)
(-1.7457 -0.0392651 6.9128e-21)
(-1.70507 -0.0398838 -7.45882e-21)
(-1.6635 -0.0404678 1.19935e-20)
(-1.62101 -0.0410351 6.58289e-21)
(-1.5776 -0.0415805 -1.46962e-20)
(-1.53329 -0.0421026 -5.10656e-21)
(-1.48809 -0.0426 -2.81627e-20)
(-1.44203 -0.0430685 -1.85836e-20)
(-1.39512 -0.0435145 4.24786e-20)
(-1.34739 -0.0439313 7.15528e-20)
(-1.29885 -0.044324 -1.02207e-19)
(-1.24953 -0.0446847 3.23687e-20)
(-1.19944 -0.0450183 6.58277e-21)
(-1.14863 -0.0453136 -1.90835e-19)
(-1.09711 -0.0455778 4.81975e-21)
(-1.04493 -0.0458003 3.11657e-21)
(-0.992115 -0.0459927 -6.69389e-20)
(-0.938722 -0.0461474 8.69433e-20)
(-0.884751 -0.0462765 1.25537e-19)
(-0.83027 -0.0463755 1.33762e-19)
(-0.775273 -0.0464538 1.21588e-19)
(-0.719819 -0.0465122 -1.85013e-19)
(-0.663905 -0.0465509 2.41372e-20)
(-0.607569 -0.0465758 -5.32055e-20)
(-0.550826 -0.0465838 1.47043e-19)
(-0.493701 -0.0465738 -4.58415e-20)
(-0.436218 -0.0465467 1.90654e-19)
(-0.378404 -0.0465005 -1.9501e-19)
(-0.320284 -0.0464395 -3.10939e-19)
(-0.261884 -0.0463644 -4.88089e-19)
(-0.203227 -0.0462748 -2.36932e-19)
(-0.14434 -0.0461679 -1.10287e-19)
(-0.0852551 -0.0460377 5.44875e-20)
(-0.0260214 -0.0458625 3.41766e-20)
(0.0333335 -0.0456064 -4.01661e-19)
(0.0926669 -0.0451955 -3.71744e-19)
(0.15164 -0.0444935 5.11561e-19)
(0.210175 -0.0432577 6.22848e-19)
(0.266061 -0.0409583 5.82005e-19)
(0.324354 -0.0368108 2.91986e-19)
(0.361373 -0.0246998 -6.25848e-19)
(0.000780621 0.021083 2.81305e-19)
(0.00152267 0.0430121 2.59602e-18)
(0.00455003 0.0431339 2.69539e-18)
(0.0159991 0.0236823 -2.23288e-18)
(0.0439128 -0.02056 4.37272e-19)
(0.0869221 -0.0808658 -1.8788e-19)
(0.137081 -0.139149 -7.15286e-20)
(0.186699 -0.182674 5.11006e-19)
(0.231012 -0.206686 3.80632e-19)
(0.268078 -0.212464 3.04466e-19)
(0.297942 -0.204293 1.33532e-19)
(0.321572 -0.186946 1.24128e-19)
(0.340188 -0.164436 -3.89579e-19)
(0.354799 -0.139559 -2.38521e-19)
(0.366125 -0.114019 8.46783e-20)
(0.374672 -0.0887609 -1.81548e-19)
(0.380785 -0.0641979 1.75966e-19)
(0.384715 -0.0405062 2.62717e-20)
(0.386641 -0.0177255 2.58499e-19)
(0.386754 0.00418349 2.28754e-19)
(0.385401 0.0253649 -2.13728e-19)
(0.382863 0.0460095 -5.68225e-19)
(0.379367 0.0662111 -1.0134e-19)
(0.374995 0.0858047 -6.51616e-19)
(0.369494 0.104315 1.46439e-19)
(0.362294 0.120856 2.30668e-19)
(0.352441 0.134152 -9.36566e-20)
(0.338807 0.142616 3.30353e-19)
(0.320391 0.144691 1.8362e-19)
(0.296923 0.139281 4.27845e-19)
(0.269266 0.126185 -2.29888e-19)
(0.23968 0.106044 -1.60652e-19)
(0.211304 0.0801806 9.10542e-20)
(0.187428 0.0500149 -1.28976e-19)
(0.171173 0.0170145 -2.2349e-19)
(0.162727 -0.0183861 -1.56096e-20)
(0.162575 -0.0531776 -7.67483e-19)
(0.164259 -0.0794518 2.40532e-19)
(0.158358 -0.0867564 -5.23975e-19)
(0.140838 -0.0728754 -1.59664e-19)
(0.113411 -0.0449576 1.36421e-19)
(0.0764777 -0.0108406 -1.41405e-19)
(0.0308946 0.0256363 -3.30424e-19)
(-0.0301767 0.0605327 9.07412e-19)
(-0.121709 0.100251 7.6832e-19)
(-0.23537 0.153103 -3.74421e-19)
(-0.366206 0.212809 1.29526e-19)
(-0.50959 0.272535 -1.20121e-19)
(-0.65627 0.327667 -1.76506e-19)
(-0.797923 0.372206 -7.45551e-20)
(-0.931541 0.405864 -7.12124e-20)
(-1.05348 0.427901 1.22126e-19)
(-1.162 0.438121 1.91459e-20)
(-1.25644 0.437171 8.30445e-20)
(-1.33734 0.426617 9.17873e-21)
(-1.40612 0.408478 1.02637e-20)
(-1.46524 0.384685 4.2234e-20)
(-1.51679 0.357464 6.42973e-20)
(-1.56301 0.329215 -1.07418e-20)
(-1.60554 0.301406 2.04071e-19)
(-1.64553 0.274953 1.46463e-19)
(-1.68384 0.250565 3.38217e-20)
(-1.72098 0.228528 7.54177e-20)
(-1.75712 0.208971 -1.75256e-19)
(-1.79239 0.191687 2.59429e-20)
(-1.82687 0.176419 1.01856e-19)
(-1.86049 0.162996 -1.63877e-19)
(-1.89318 0.151122 -7.44699e-20)
(-1.92488 0.140519 5.02044e-20)
(-1.95555 0.130972 3.94617e-20)
(-1.98513 0.122308 -8.41069e-20)
(-2.01359 0.114348 1.45876e-19)
(-2.04088 0.106984 1.71531e-20)
(-2.06699 0.100098 5.31062e-20)
(-2.09189 0.0936287 -1.75103e-19)
(-2.11557 0.0875017 1.7022e-19)
(-2.13802 0.0816918 3.59305e-20)
(-2.15924 0.0761525 -7.44525e-20)
(-2.17921 0.0708735 -1.35844e-19)
(-2.19796 0.0658232 -6.75562e-20)
(-2.21548 0.0609993 1.08894e-20)
(-2.23181 0.0563822 2.92754e-20)
(-2.24696 0.0519728 -1.39304e-20)
(-2.26096 0.0477588 -1.03699e-19)
(-2.27383 0.0437376 -2.83423e-20)
(-2.2856 0.0398995 -3.16145e-20)
(-2.29632 0.0362361 1.89682e-20)
(-2.30602 0.0327371 -6.53733e-20)
(-2.31476 0.0293946 -9.35994e-20)
(-2.32257 0.0262051 -1.15117e-19)
(-2.32945 0.0231718 3.71683e-20)
(-2.3354 0.0202834 -1.35531e-19)
(-2.34046 0.0175271 1.31551e-19)
(-2.34466 0.0148845 1.13441e-20)
(-2.34801 0.0123461 -3.09316e-20)
(-2.35056 0.00990025 -5.74611e-20)
(-2.35232 0.00754532 1.98078e-20)
(-2.35331 0.00527817 9.52689e-20)
(-2.35356 0.00310464 7.82419e-20)
(-2.35305 0.00101974 3.45705e-20)
(-2.35175 -0.00100661 4.13964e-20)
(-2.34963 -0.00300766 2.0602e-20)
(-2.34665 -0.00498218 1.90044e-20)
(-2.34283 -0.00693708 -2.62458e-19)
(-2.33816 -0.00888023 5.14819e-20)
(-2.33263 -0.0108215 4.64925e-20)
(-2.32624 -0.01276 -9.01936e-20)
(-2.31897 -0.0146975 7.64595e-20)
(-2.31081 -0.016629 -2.53771e-20)
(-2.30174 -0.0185548 1.09796e-19)
(-2.29175 -0.0204713 7.9657e-20)
(-2.28081 -0.0223793 5.59005e-20)
(-2.26892 -0.0242765 -3.67259e-20)
(-2.25605 -0.0261636 4.41827e-20)
(-2.24221 -0.0280379 2.83189e-20)
(-2.22738 -0.0298981 -3.40152e-20)
(-2.21155 -0.0317408 -5.07752e-20)
(-2.19471 -0.0335646 1.57931e-19)
(-2.17686 -0.0353666 2.34134e-20)
(-2.15798 -0.0371437 -5.34899e-20)
(-2.13805 -0.0388946 -1.33589e-19)
(-2.11707 -0.0406163 -1.68126e-20)
(-2.09504 -0.0423101 -1.11923e-21)
(-2.07196 -0.0439748 -4.58197e-20)
(-2.04784 -0.0456105 4.73514e-21)
(-2.02267 -0.0472128 3.54839e-20)
(-1.99646 -0.0487811 -9.60999e-20)
(-1.9692 -0.0503109 3.14253e-20)
(-1.94089 -0.0518025 1.21461e-20)
(-1.91153 -0.0532523 4.57133e-20)
(-1.88114 -0.0546599 -1.20825e-20)
(-1.8497 -0.0560205 2.43334e-20)
(-1.81723 -0.0573339 5.65286e-20)
(-1.78374 -0.0585954 5.27075e-21)
(-1.74922 -0.0597994 -1.75505e-20)
(-1.71369 -0.0609433 3.8425e-21)
(-1.67714 -0.0620259 2.23361e-21)
(-1.63957 -0.0630508 -2.10381e-21)
(-1.60099 -0.0640426 1.68943e-22)
(-1.56142 -0.0650106 -6.68087e-22)
(-1.52092 -0.0659418 3.05776e-21)
(-1.47949 -0.0668322 -3.1579e-20)
(-1.43715 -0.0676893 -4.61859e-21)
(-1.3939 -0.0685075 -5.212e-21)
(-1.34975 -0.0692836 -1.06401e-20)
(-1.30474 -0.0700162 5.10217e-20)