/*--------------------------------*- C++ -*----------------------------------*\
  =========                 |
  \\      /  F ield         | OpenFOAM: The Open Source CFD Toolbox
   \\    /   O peration     | Website:  https://openfoam.org
    \\  /    A nd           | Version:  13
     \\/     M anipulation  |
\*---------------------------------------------------------------------------*/
FoamFile
{
    format      ascii;
    class       volScalarField;
    location    "1000";
    object      k;
}
// * * * * * * * * * * * * * * * * * * * * * * * * * * * * * * * * * * * * * //

dimensions      [0 2 -2 0 0 0 0];

internalField   nonuniform List<scalar> 
12225
(
0.417828
2.01478
2.16504
1.93196
2.10606
1.2898
2.89253
2.21372
2.57809
2.80275
2.2254
1.62667
1.46002
1.39035
1.33375
1.36549
1.95146
2.42114
0.0345028
0.0299151
0.0499339
0.0492367
0.105166
0.0811009
0.124493
0.134867
0.155854
0.185106
0.227021
0.25371
0.260157
0.295527
0.352921
0.412292
0.476257
0.528134
0.11572
0.0362692
0.0159526
0.0083595
0.00677799
0.00781547
0.00943311
0.011047
0.0106755
0.00924615
0.0198403
0.0246625
0.0250259
0.029397
0.0398054
0.0526097
0.0632935
0.0757776
0.25271
0.117623
0.0546215
0.0280593
0.0185494
0.0106198
0.00717001
0.00707961
0.0108358
0.0105692
0.0148781
0.0151662
0.0155634
0.0150323
0.0150358
0.0159051
0.02075
0.0253562
0.386996
0.300602
0.222118
0.177943
0.15234
0.138499
0.133146
0.119278
0.108192
0.0969665
0.0832388
0.074928
0.0667494
0.0618178
0.0591146
0.0580395
0.0572604
0.0590171
0.38307
0.358899
0.329164
0.281265
0.254547
0.243209
0.238014
0.227189
0.215147
0.200126
0.186932
0.174457
0.163433
0.155434
0.149928
0.145444
0.142902
0.140983
0.379395
0.364267
0.352927
0.341186
0.325086
0.310727
0.301487
0.293582
0.28463
0.275493
0.265675
0.25708
0.249022
0.242867
0.238303
0.235956
0.230329
0.228181
0.376052
0.367241
0.361355
0.35687
0.35104
0.34463
0.337577
0.331991
0.325086
0.3193
0.312494
0.308323
0.302373
0.298685
0.293174
0.290977
0.292939
0.288502
0.374786
0.370558
0.366427
0.363102
0.359852
0.356299
0.352199
0.348405
0.344263
0.340249
0.336403
0.333239
0.33046
0.327885
0.32605
0.323906
0.322951
0.320956
0.374145
0.371402
0.368514
0.365873
0.363431
0.360873
0.358137
0.355361
0.352616
0.349784
0.347262
0.344832
0.34293
0.340976
0.339529
0.337845
0.336609
0.334924
0.373906
0.371564
0.369218
0.366954
0.364861
0.362755
0.360626
0.358442
0.356341
0.3542
0.352266
0.350368
0.348769
0.347175
0.345843
0.344418
0.343216
0.341799
0.373845
0.371571
0.369382
0.367271
0.365299
0.363376
0.361497
0.359608
0.357799
0.355997
0.35433
0.352706
0.351254
0.349834
0.348572
0.347281
0.346128
0.344878
0.373832
0.371561
0.369411
0.367356
0.365423
0.36357
0.361796
0.360061
0.358402
0.356783
0.35526
0.353786
0.352425
0.351102
0.349889
0.348682
0.347573
0.346438
0.373828
0.371557
0.369409
0.367366
0.365437
0.3636
0.361857
0.360183
0.358591
0.357057
0.355603
0.354207
0.352891
0.351626
0.350435
0.349283
0.348193
0.347134
0.373827
0.371554
0.369402
0.36736
0.365425
0.363588
0.361845
0.360185
0.358605
0.3571
0.355665
0.354297
0.352994
0.351752
0.350567
0.349435
0.348355
0.347321
0.373826
0.371552
0.369396
0.367352
0.365414
0.363573
0.361826
0.360163
0.358585
0.357078
0.355649
0.354281
0.352983
0.35174
0.350559
0.349426
0.348351
0.347318
0.373826
0.37155
0.369393
0.367347
0.365406
0.363563
0.361812
0.360148
0.358564
0.357058
0.355623
0.354256
0.352952
0.351711
0.350524
0.349394
0.348312
0.347282
0.373825
0.371549
0.369391
0.367344
0.365401
0.363557
0.361804
0.360138
0.358552
0.357044
0.355606
0.354238
0.352931
0.351688
0.350499
0.349367
0.348284
0.347253
0.373825
0.371549
0.369391
0.367344
0.365401
0.363556
0.361802
0.360135
0.358548
0.357039
0.3556
0.354231
0.352923
0.351679
0.350489
0.349356
0.348273
0.347241
0.373825
0.371552
0.369393
0.367349
0.365404
0.363564
0.361807
0.360144
0.358553
0.357046
0.355602
0.354232
0.352921
0.351676
0.350483
0.34935
0.348265
0.347234
0.373827
0.371553
0.369398
0.367352
0.365411
0.363563
0.361808
0.36013
0.35853
0.356999
0.355537
0.354141
0.35281
0.351543
0.350334
0.34919
0.348093
0.347059
0.373833
0.371553
0.369399
0.367333
0.365357
0.363468
0.36165
0.359896
0.358188
0.356545
0.354944
0.353423
0.351957
0.350588
0.349273
0.348071
0.346897
0.345847
0.373864
0.371531
0.369324
0.367059
0.364835
0.362655
0.360559
0.358453
0.356359
0.354261
0.352142
0.35014
0.348178
0.346418
0.344708
0.343293
0.341849
0.340717
0.373917
0.371449
0.369011
0.365769
0.362417
0.359124
0.356248
0.353073
0.349937
0.346411
0.342722
0.339245
0.335768
0.332731
0.329894
0.327816
0.325476
0.324114
0.374093
0.371051
0.367429
0.361189
0.354402
0.348155
0.343201
0.337006
0.330997
0.323261
0.315427
0.308154
0.300427
0.293455
0.287469
0.282078
0.27664
0.27364
0.374448
0.369453
0.360498
0.348639
0.33343
0.319498
0.307373
0.294944
0.279892
0.264562
0.247683
0.231796
0.215479
0.202964
0.191333
0.181937
0.174099
0.168341
0.366458
0.356576
0.338722
0.317997
0.28103
0.244024
0.219247
0.198345
0.181631
0.166173
0.150108
0.135097
0.120608
0.107862
0.0974331
0.0881589
0.0821395
0.0770569
0.383669
0.3297
0.296341
0.233428
0.184284
0.141877
0.121045
0.100957
0.0883755
0.0834574
0.082029
0.0801074
0.0768588
0.0756294
0.0751263
0.0755688
0.0764857
0.0784723
0.378101
0.395561
0.400997
0.415473
0.416288
0.41462
0.416561
0.348226
0.355986
0.339933
0.311853
0.304022
0.322438
0.340273
0.366317
0.38914
0.414666
0.436621
0.73875
1.16541
1.42804
1.55857
1.59659
1.5897
1.56706
1.52129
1.4716
1.42237
1.37447
1.33085
1.29212
1.25843
1.2289
1.20386
1.18177
1.16322
1.60024e-08
4.02544e-07
2.05111e-06
7.97894e-06
2.63081e-05
7.90022e-05
0.000207388
0.000415376
0.000686224
0.000983892
0.00126444
0.00149239
0.00165553
0.00174608
0.00173802
0.00167775
0.00158698
0.00140216
0.00119867
0.00102833
0.000869141
0.000713399
0.000558117
0.000412253
0.000277477
0.000167522
9.06385e-05
4.55118e-05
2.25353e-05
1.16217e-05
6.49336e-06
4.31414e-06
3.98194e-06
7.09188e-06
1.85447e-05
4.22911e-05
0.000252566
0.000516524
0.000945922
0.00126446
0.00125264
0.00112519
0.000884183
0.000741289
0.000734797
0.000822296
0.000989817
0.00154987
0.00264939
0.00660627
0.0204751
0.0517138
0.0889189
0.112496
0.114853
0.0961601
0.109741
0.143368
0.153695
0.137873
0.163883
0.183225
0.160263
0.157961
0.170158
0.178106
0.187162
0.195186
0.203699
0.211501
0.219588
0.227256
0.235008
0.242553
0.250056
0.257465
0.264768
0.272026
0.279159
0.286265
0.293239
0.300183
0.306998
0.313774
0.320422
0.327012
0.333478
0.339865
0.34613
0.3523
0.358345
0.364265
0.370036
0.375662
0.381122
0.386416
0.391527
0.396458
0.40121
0.405817
0.410335
0.414728
0.418976
0.423091
0.427083
0.43093
0.434652
0.438219
0.441655
0.444929
0.448069
0.451043
0.453881
0.456548
0.459078
0.461435
0.463651
0.465695
0.467592
0.469315
0.470888
0.472291
0.473539
0.47462
0.475538
0.476288
0.476865
0.477271
0.477482
0.477497
0.477346
0.477244
0.476952
0.476437
0.475811
0.475022
0.474089
0.473083
0.471799
0.470356
0.468724
0.466965
0.465068
0.463037
0.460871
0.458582
0.456169
0.453642
0.451015
0.448233
0.44539
0.442492
0.439398
0.436345
0.433084
0.429851
0.426494
0.423124
0.419692
0.416237
0.41276
0.409282
0.405811
0.402353
0.39892
0.395511
0.392136
0.388797
0.385505
0.382259
0.379072
0.375935
0.372848
0.369784
0.366698
0.363499
0.360055
0.356056
0.350884
0.335036
8.94745e-08
2.53604e-06
1.68154e-05
6.9696e-05
0.000239326
0.000692775
0.00154876
0.00279706
0.00432248
0.00595646
0.00752082
0.00885799
0.00990118
0.0106077
0.0110291
0.0109978
0.0109198
0.0106578
0.0101863
0.00948897
0.00855659
0.00744715
0.00616034
0.00485136
0.00346425
0.00232678
0.00148557
0.000914568
0.000546818
0.000321243
0.000192689
0.000125419
9.98782e-05
0.000110246
0.000238854
0.000349865
0.00251549
0.00489483
0.00863039
0.0114246
0.0125748
0.0123392
0.0116165
0.0115494
0.0128349
0.0162451
0.0214868
0.0309466
0.0471426
0.0726862
0.0973392
0.122749
0.143201
0.159616
0.171373
0.183454
0.200402
0.217213
0.233278
0.252372
0.271058
0.289261
0.306513
0.326197
0.345237
0.36412
0.382789
0.401106
0.419311
0.437234
0.455081
0.472751
0.490338
0.50783
0.525239
0.542592
0.55986
0.57709
0.594241
0.611355
0.628385
0.64537
0.662264
0.679098
0.695827
0.712473
0.728998
0.745413
0.761693
0.777833
0.79382
0.809614
0.825202
0.840566
0.855684
0.870535
0.885086
0.89931
0.913166
0.926624
0.93965
0.952395
0.964908
0.977167
0.989177
1.00092
1.0124
1.02358
1.03447
1.04505
1.05532
1.06526
1.07488
1.08416
1.0931
1.1017
1.10994
1.11782
1.12534
1.13249
1.13927
1.14566
1.15168
1.15731
1.16255
1.16739
1.17183
1.17586
1.17947
1.18268
1.18547
1.18785
1.18981
1.19133
1.19215
1.19323
1.19339
1.19363
1.1937
1.19364
1.19288
1.19178
1.19028
1.18839
1.18611
1.18346
1.18043
1.17705
1.17328
1.16916
1.16476
1.15996
1.15489
1.14947
1.1438
1.13779
1.13156
1.12508
1.11838
1.11148
1.10443
1.09724
1.08994
1.08256
1.0751
1.06757
1.06001
1.0524
1.04477
1.03713
1.0295
1.02188
1.01426
1.00661
0.998873
0.990904
0.98249
0.973303
0.961389
0.934612
2.16597e-07
6.52856e-06
4.94734e-05
0.000225454
0.000652965
0.00173978
0.00358699
0.00584279
0.00818095
0.0103493
0.0122002
0.0136625
0.0147261
0.015401
0.0157882
0.0157767
0.0156415
0.0154463
0.0150242
0.0144727
0.0137838
0.0129567
0.0119698
0.0107964
0.00949519
0.00794243
0.00623599
0.00459567
0.00313944
0.00203362
0.00133205
0.000915221
0.000700098
0.000557553
0.00111603
0.00236792
0.00904224
0.0176468
0.0256482
0.0308985
0.0336093
0.034749
0.0373811
0.0451471
0.0597692
0.0762916
0.093987
0.114178
0.135558
0.155464
0.176812
0.197758
0.218603
0.239643
0.263273
0.290078
0.318272
0.346176
0.373956
0.402558
0.430437
0.457918
0.484946
0.51164
0.537584
0.563053
0.588002
0.612528
0.636712
0.660602
0.684257
0.707713
0.731009
0.754172
0.777216
0.800159
0.823
0.845752
0.86841
0.89098
0.913449
0.935819
0.958076
0.980217
1.00222
1.02409
1.0458
1.06734
1.08871
1.10989
1.13085
1.15158
1.17206
1.19226
1.21219
1.23182
1.25115
1.27016
1.28887
1.30725
1.32533
1.34309
1.36052
1.37761
1.39434
1.4107
1.42667
1.44224
1.45738
1.4721
1.48637
1.5002
1.51355
1.52645
1.53886
1.55079
1.56222
1.57315
1.58358
1.59349
1.60288
1.61176
1.62011
1.62793
1.63521
1.64195
1.64815
1.65379
1.65888
1.66341
1.66739
1.6708
1.67366
1.67594
1.67765
1.67891
1.67942
1.67956
1.67918
1.67834
1.67691
1.67494
1.67242
1.66935
1.66575
1.66162
1.65697
1.65181
1.64613
1.63999
1.6334
1.6263
1.61883
1.61087
1.60258
1.59384
1.58478
1.57539
1.5657
1.55576
1.5456
1.53525
1.52475
1.51412
1.50339
1.49258
1.48169
1.47075
1.45978
1.4488
1.43783
1.42688
1.41596
1.40505
1.39411
1.38305
1.37167
1.35972
1.34522
1.32024
6.79014e-07
1.99405e-05
0.000157397
0.000689628
0.00192287
0.00462542
0.0080159
0.0114119
0.014431
0.0168765
0.0186998
0.0199307
0.0206341
0.0209031
0.0208431
0.0206401
0.0201829
0.0196056
0.0189412
0.018209
0.0174134
0.0165532
0.0156156
0.0145763
0.0134206
0.012117
0.0106424
0.00904205
0.00740752
0.00583349
0.00436488
0.00331009
0.00254415
0.00284189
0.00530907
0.0140862
0.0300348
0.0437426
0.0541404
0.0618885
0.0695362
0.0795536
0.0927424
0.107901
0.12293
0.138523
0.155573
0.175489
0.196813
0.219896
0.245307
0.272165
0.300833
0.331019
0.362741
0.395489
0.428562
0.461614
0.494539
0.527299
0.559508
0.591206
0.622284
0.652852
0.682816
0.712309
0.741362
0.770058
0.798451
0.826595
0.854538
0.88232
0.909971
0.937517
0.96497
0.992341
1.01963
1.04685
1.07398
1.10102
1.12796
1.15481
1.18153
1.20812
1.23457
1.26086
1.28697
1.3129
1.33862
1.36413
1.38941
1.41442
1.43916
1.4636
1.48774
1.51156
1.53506
1.55823
1.58104
1.60351
1.6256
1.64729
1.66858
1.68944
1.70986
1.72981
1.74928
1.76824
1.78668
1.80459
1.82194
1.83873
1.85494
1.87057
1.8856
1.90003
1.91384
1.92703
1.93959
1.95151
1.96279
1.97343
1.98341
1.99274
2.00141
2.00941
2.01674
2.02339
2.02936
2.03465
2.03926
2.04318
2.04642
2.04896
2.05081
2.05192
2.0523
2.05206
2.05119
2.04966
2.04745
2.04457
2.04103
2.03683
2.03197
2.02648
2.02035
2.01362
2.00627
1.99835
1.98989
1.98085
1.97134
1.96129
1.9508
1.93983
1.92846
1.91669
1.90458
1.89217
1.87949
1.86658
1.85349
1.84024
1.82687
1.81339
1.79983
1.78621
1.77254
1.75887
1.7452
1.73158
1.71802
1.70452
1.69107
1.67762
1.66404
1.65012
1.6342
1.611
2.15341e-06
6.44505e-05
0.000492218
0.0019208
0.00538873
0.0104466
0.0153324
0.0193736
0.0223615
0.0243312
0.0254504
0.0259118
0.0258644
0.0255987
0.0250317
0.0243127
0.0235082
0.0226561
0.0217838
0.0209029
0.0200139
0.0191085
0.018173
0.0171867
0.0161249
0.0149636
0.0136868
0.0122935
0.0108435
0.00942725
0.00802671
0.00658753
0.00721133
0.0120202
0.0263243
0.0474731
0.066429
0.0815383
0.0932011
0.103563
0.114363
0.126024
0.138447
0.15163
0.166662
0.184818
0.205888
0.229733
0.256194
0.284819
0.315384
0.347345
0.380567
0.414699
0.449528
0.484777
0.520188
0.555587
0.590874
0.625964
0.660713
0.695097
0.729042
0.762594
0.795746
0.828554
0.861048
0.893284
0.925305
0.957155
0.988872
1.02049
1.05203
1.08352
1.11496
1.14636
1.17771
1.20902
1.24026
1.27144
1.30253
1.33353
1.36441
1.39516
1.42576
1.4562
1.48645
1.51649
1.54632
1.57592
1.60527
1.63433
1.66309
1.69154
1.71965
1.74741
1.77481
1.80183
1.82846
1.85466
1.88042
1.90572
1.93053
1.95485
1.97863
2.00187
2.02453
2.0466
2.06805
2.08886
2.10902
2.12851
2.14732
2.16543
2.18283
2.19951
2.21547
2.23068
2.24514
2.25885
2.27179
2.28397
2.29538
2.30601
2.31586
2.32492
2.33319
2.34066
2.34733
2.35319
2.35826
2.36252
2.36596
2.36861
2.37041
2.37129
2.37145
2.37081
2.3694
2.3672
2.36423
2.36048
2.35595
2.35067
2.34463
2.33785
2.33036
2.32216
2.31327
2.30373
2.29354
2.28274
2.27136
2.2594
2.24692
2.23392
2.22045
2.20654
2.19224
2.17758
2.16262
2.14741
2.13197
2.11634
2.10058
2.08468
2.06869
2.05262
2.03651
2.02038
2.00427
1.98822
1.97225
1.9564
1.94066
1.92504
1.90945
1.89376
1.87656
1.85396
6.76509e-06
0.000199253
0.00144981
0.00525686
0.0125716
0.019358
0.0244294
0.0277038
0.0295394
0.0303531
0.0304499
0.0301715
0.0295264
0.0286449
0.027649
0.0266009
0.0255489
0.0245196
0.0235308
0.022584
0.0216739
0.0207852
0.0198983
0.018984
0.0180171
0.0169723
0.0158096
0.0144805
0.0129388
0.011446
0.0113266
0.0135906
0.0225882
0.0419775
0.0666506
0.0890307
0.106728
0.119708
0.129541
0.138437
0.14777
0.158291
0.171412
0.187773
0.207351
0.230391
0.256492
0.285079
0.315635
0.347662
0.380888
0.41502
0.449913
0.485392
0.521344
0.557651
0.594207
0.630915
0.667694
0.704462
0.741129
0.777649
0.813971
0.850098
0.88602
0.921756
0.95733
0.992771
1.02811
1.06339
1.09862
1.13384
1.16907
1.20431
1.23957
1.27484
1.31012
1.3454
1.38066
1.41587
1.45103
1.4861
1.52107
1.55591
1.59061
1.62513
1.65947
1.69359
1.72748
1.76111
1.79448
1.82754
1.86028
1.89266
1.92468
1.95632
1.98754
2.01833
2.04867
2.07853
2.10788
2.1367
2.16497
2.19266
2.21974
2.24619
2.27198
2.29708
2.32147
2.34512
2.36802
2.39014
2.41147
2.43199
2.45169
2.47056
2.48858
2.50573
2.52203
2.53744
2.55198
2.56562
2.57838
2.59024
2.60119
2.61123
2.62036
2.62857
2.63586
2.64223
2.64768
2.6522
2.6558
2.65848
2.66014
2.66082
2.66067
2.65961
2.65765
2.6548
2.65106
2.64644
2.64095
2.63461
2.62741
2.6194
2.61057
2.60096
2.59057
2.57946
2.56762
2.5551
2.54193
2.52814
2.51374
2.49878
2.4833
2.46732
2.45091
2.4341
2.41696
2.39951
2.38182
2.36391
2.34583
2.32761
2.30928
2.29085
2.27237
2.25387
2.2354
2.21699
2.1987
2.18055
2.16259
2.14484
2.12726
2.10974
2.0911
2.06817
2.14506e-05
0.000595738
0.00399407
0.0128882
0.0222508
0.028567
0.03219
0.0340072
0.0346711
0.0345871
0.0340683
0.0331093
0.0319324
0.0306382
0.0293117
0.0280094
0.0267738
0.0256238
0.0245684
0.0235992
0.0227017
0.0218508
0.021015
0.0201473
0.0191997
0.0181831
0.0172247
0.0164405
0.016257
0.0177953
0.0239259
0.0377206
0.0602493
0.0851746
0.107955
0.125849
0.138276
0.146945
0.154267
0.162175
0.172671
0.186643
0.20415
0.2253
0.249783
0.277141
0.306663
0.337753
0.370028
0.403233
0.437231
0.471902
0.507194
0.543047
0.579425
0.616277
0.653555
0.691189
0.729103
0.767228
0.805493
0.843845
0.882236
0.920638
0.959039
0.997438
1.03584
1.07426
1.11272
1.15125
1.18985
1.22856
1.26736
1.30628
1.3453
1.38442
1.42361
1.46286
1.50214
1.54141
1.58066
1.61984
1.65894
1.69792
1.73675
1.77541
1.81387
1.85211
1.8901
1.92782
1.96524
2.00234
2.03908
2.07543
2.11138
2.1469
2.18197
2.21655
2.25062
2.28416
2.31712
2.34948
2.38122
2.41231
2.44271
2.47239
2.50132
2.52947
2.55681
2.58332
2.60896
2.63372
2.65757
2.68051
2.7025
2.72354
2.74361
2.7627
2.7808
2.7979
2.814
2.82908
2.84315
2.8562
2.86822
2.8792
2.88915
2.89806
2.90593
2.91276
2.91855
2.92329
2.92699
2.92966
2.93116
2.93164
2.93114
2.92962
2.92709
2.92356
2.91905
2.91355
2.90709
2.89967
2.89132
2.88206
2.8719
2.86087
2.849
2.83631
2.82284
2.80861
2.79366
2.77803
2.76174
2.74483
2.72734
2.70932
2.69081
2.67187
2.65255
2.63291
2.61297
2.5928
2.57244
2.55191
2.53125
2.51048
2.48965
2.4688
2.44797
2.42722
2.4066
2.38617
2.36597
2.34605
2.3264
2.30694
2.28663
2.26272
6.46003e-05
0.00164823
0.00960776
0.0227411
0.0312763
0.035936
0.0382384
0.0390678
0.0389487
0.0382338
0.0369917
0.0354751
0.0338253
0.0321451
0.0305191
0.0289997
0.0276214
0.0263915
0.0253074
0.0243476
0.0234875
0.0226891
0.0218986
0.0210732
0.0202684
0.0196847
0.0196673
0.0212562
0.0260605
0.0366712
0.0550886
0.0777939
0.100606
0.121384
0.137955
0.149474
0.157358
0.16407
0.172319
0.183522
0.19835
0.216947
0.23904
0.264227
0.291893
0.321399
0.352198
0.383948
0.416488
0.449726
0.483637
0.518199
0.553421
0.589299
0.62584
0.663019
0.700799
0.739132
0.777962
0.817226
0.856864
0.896817
0.937036
0.977492
1.01815
1.05901
1.10006
1.14131
1.18275
1.22442
1.26631
1.30844
1.3508
1.39339
1.43619
1.47918
1.52233
1.56561
1.60898
1.6524
1.69583
1.73922
1.78254
1.82575
1.86881
1.9117
1.95439
1.99683
2.03901
2.08088
2.12244
2.16364
2.20445
2.24484
2.28478
2.32424
2.3632
2.40163
2.43948
2.47674
2.51336
2.54932
2.58458
2.6191
2.65286
2.68581
2.71792
2.74915
2.77947
2.80885
2.83726
2.86467
2.89106
2.91641
2.94069
2.9639
2.98602
3.00702
3.02691
3.04568
3.06331
3.07981
3.09516
3.10936
3.12241
3.1343
3.14503
3.15459
3.16299
3.17023
3.17631
3.18123
3.18498
3.18758
3.1889
3.18913
3.18823
3.18621
3.18307
3.17883
3.17351
3.1671
3.15964
3.15113
3.14159
3.13106
3.11954
3.10708
3.0937
3.07943
3.06429
3.04834
3.0316
3.01411
2.99591
2.97704
2.95753
2.93744
2.91683
2.89575
2.87426
2.8524
2.83023
2.80779
2.78513
2.76229
2.73929
2.71618
2.69298
2.66977
2.64658
2.62347
2.60051
2.57775
2.55527
2.53313
2.51132
2.4898
2.46761
2.44224
0.000170908
0.00396963
0.0185276
0.0317214
0.0387867
0.0422377
0.0436208
0.0436831
0.0429362
0.0415025
0.0396868
0.0376627
0.0355809
0.0335526
0.0316684
0.0299788
0.0285159
0.02728
0.0262619
0.025441
0.0247934
0.0243161
0.0240769
0.0241979
0.0249969
0.026999
0.0310425
0.0389857
0.0528811
0.0709858
0.0910081
0.111064
0.128998
0.143524
0.154302
0.162441
0.170038
0.179237
0.191399
0.207122
0.226388
0.248872
0.274057
0.301378
0.330265
0.360251
0.391051
0.422528
0.454658
0.48744
0.520914
0.555107
0.590067
0.625816
0.66237
0.69972
0.737853
0.776733
0.816317
0.856552
0.897383
0.938761
0.980638
1.02297
1.06574
1.10891
1.15249
1.19645
1.24082
1.28557
1.33073
1.37627
1.42221
1.46851
1.51515
1.56209
1.6093
1.65672
1.7043
1.75198
1.79971
1.84743
1.89509
1.94266
1.99008
2.03731
2.08432
2.13107
2.17752
2.22366
2.26943
2.31481
2.35976
2.40424
2.44823
2.4917
2.5346
2.57691
2.61859
2.65961
2.69993
2.7395
2.77831
2.81629
2.85342
2.88965
2.92494
2.95926
2.99256
3.02481
3.05598
3.08602
3.11493
3.14266
3.16921
3.19455
3.21867
3.24155
3.26319
3.28357
3.30269
3.32054
3.33712
3.35242
3.36643
3.37916
3.3906
3.40075
3.40962
3.4172
3.4235
3.42852
3.43226
3.43471
3.43579
3.43569
3.43434
3.43175
3.42795
3.42294
3.41674
3.40938
3.40086
3.39121
3.38044
3.36859
3.35569
3.34175
3.32683
3.31094
3.29412
3.27641
3.25785
3.23849
3.21835
3.19748
3.17593
3.15377
3.13104
3.10781
3.08413
3.06006
3.03564
3.01093
2.98597
2.9608
2.93546
2.90999
2.88443
2.85884
2.83327
2.80779
2.78247
2.75737
2.73257
2.70814
2.68409
2.66041
2.63618
2.60899
0.00038745
0.00818844
0.0277939
0.0398381
0.0456689
0.0482493
0.0489179
0.0483535
0.0469212
0.0449074
0.0425589
0.0400662
0.0376013
0.0352896
0.0332306
0.0314771
0.0300632
0.0289847
0.0282004
0.027761
0.0275614
0.0277772
0.0286515
0.0307303
0.0349817
0.0422896
0.0531599
0.0673219
0.0833916
0.100563
0.117359
0.132516
0.145236
0.155609
0.164434
0.173274
0.183706
0.196914
0.213331
0.23291
0.255286
0.279985
0.306504
0.334374
0.363221
0.392788
0.422975
0.453758
0.485185
0.517303
0.550189
0.583899
0.618495
0.654008
0.690472
0.727894
0.766272
0.805586
0.845805
0.886889
0.928795
0.971475
1.01489
1.059
1.10377
1.14919
1.19523
1.24188
1.28914
1.337
1.38544
1.43447
1.48404
1.53414
1.58473
1.63574
1.68713
1.73882
1.79075
1.84283
1.895
1.94719
1.99933
2.05137
2.10326
2.15496
2.2064
2.25755
2.30838
2.35884
2.4089
2.45851
2.50765
2.55628
2.60435
2.65184
2.6987
2.74491
2.79042
2.83519
2.87919
2.92237
2.96469
3.00611
3.04657
3.08604
3.12448
3.16183
3.19806
3.23312
3.26698
3.29959
3.33093
3.36098
3.38971
3.4171
3.44313
3.46779
3.49108
3.51298
3.53349
3.55259
3.57028
3.58657
3.60145
3.61491
3.62696
3.63759
3.64681
3.65463
3.66104
3.66606
3.66968
3.67188
3.67267
3.67213
3.67022
3.66699
3.66243
3.65658
3.64944
3.64104
3.6314
3.62054
3.60849
3.59527
3.58092
3.56547
3.54896
3.53141
3.51287
3.49338
3.47297
3.45169
3.42959
3.4067
3.3831
3.35883
3.33398
3.30858
3.28271
3.25642
3.22975
3.20277
3.1755
3.14801
3.12032
3.09248
3.06454
3.03658
3.00863
2.98078
2.95308
2.92562
2.89847
2.87171
2.84536
2.81944
2.79307
2.76414
0.000750445
0.0144653
0.0361168
0.0471067
0.0522079
0.0542294
0.0543906
0.0532858
0.051327
0.0488201
0.0460334
0.0431853
0.0404729
0.0380387
0.0359955
0.0344084
0.0333237
0.032791
0.0326943
0.0331691
0.0344612
0.0369787
0.0411353
0.0473225
0.0557247
0.0663334
0.0788755
0.0927432
0.107028
0.120942
0.13376
0.145189
0.155321
0.164878
0.174928
0.186623
0.200727
0.217595
0.237133
0.259033
0.282886
0.308286
0.33487
0.362334
0.390482
0.419204
0.4485
0.478404
0.509003
0.540372
0.572609
0.605776
0.639949
0.675172
0.711493
0.748929
0.787495
0.827182
0.867975
0.909848
0.952767
0.9967
1.04161
1.08746
1.13423
1.18189
1.23042
1.27981
1.33003
1.38106
1.4329
1.48551
1.53886
1.59291
1.64758
1.70281
1.75853
1.81464
1.87106
1.92769
1.98444
2.04122
2.09795
2.15459
2.21105
2.2673
2.32326
2.3789
2.43415
2.48898
2.54336
2.59723
2.65056
2.70332
2.75545
2.80693
2.85771
2.90776
2.95703
3.00549
3.05309
3.09979
3.14553
3.19027
3.23395
3.27654
3.31798
3.35824
3.39726
3.43499
3.47139
3.50642
3.54005
3.57225
3.60299
3.63225
3.66003
3.6863
3.71107
3.73432
3.75603
3.77622
3.79487
3.81198
3.82754
3.84157
3.85407
3.86502
3.87445
3.88234
3.88872
3.89357
3.89693
3.89877
3.89912
3.89802
3.89544
3.89143
3.88602
3.87922
3.87105
3.86153
3.85069
3.83854
3.82513
3.81048
3.79463
3.7776
3.75945
3.74021
3.71992
3.69861
3.67633
3.65311
3.62902
3.60411
3.57844
3.55208
3.52509
3.49754
3.46949
3.441
3.4121
3.38285
3.3533
3.32349
3.29347
3.26328
3.233
3.20267
3.17237
3.14216
3.1121
3.08228
3.05278
3.02366
2.99498
2.96678
2.93823
2.90742
0.00121964
0.0213215
0.0437583
0.0543272
0.0590085
0.0605934
0.0603611
0.0588405
0.056478
0.0536224
0.0505837
0.0476131
0.044932
0.0427109
0.0410791
0.0402195
0.039982
0.0404445
0.0417961
0.0441828
0.0478186
0.052843
0.0594136
0.0675481
0.0771178
0.0878858
0.0994369
0.111274
0.122913
0.134074
0.144616
0.154755
0.165001
0.176132
0.188818
0.203584
0.220598
0.2398
0.260929
0.283682
0.307743
0.332839
0.358751
0.385316
0.412458
0.440152
0.468451
0.49742
0.527169
0.557783
0.589366
0.621994
0.655753
0.690698
0.726887
0.764351
0.803118
0.843195
0.884581
0.927267
0.971236
1.01647
1.06293
1.1106
1.15945
1.20945
1.26059
1.31284
1.36617
1.42056
1.47597
1.53237
1.5897
1.64789
1.70686
1.7665
1.82672
1.88742
1.94848
2.00979
2.07123
2.1327
2.19412
2.25542
2.31652
2.37737
2.43789
2.49801
2.55769
2.61686
2.6755
2.73356
2.79101
2.84781
2.90391
2.95926
3.01383
3.06757
3.12044
3.17241
3.22343
3.27344
3.32239
3.37023
3.4169
3.46237
3.50659
3.5495
3.59105
3.6312
3.6699
3.70709
3.74274
3.77682
3.8093
3.84016
3.86941
3.89703
3.923
3.94733
3.97
3.99101
4.01035
4.02803
4.04404
4.05839
4.07109
4.08213
4.09154
4.0993
4.10543
4.10993
4.11282
4.11412
4.11385
4.11203
4.10861
4.10369
4.09729
4.08941
4.08009
4.06934
4.0572
4.04369
4.02884
4.01268
3.99527
3.97662
3.95679
3.93582
3.91375
3.89061
3.86645
3.8413
3.81522
3.78829
3.76057
3.73213
3.70305
3.67338
3.64319
3.61253
3.58144
3.54998
3.51819
3.48611
3.4538
3.42131
3.38872
3.3561
3.32349
3.29097
3.2586
3.22645
3.19461
3.16316
3.13216
3.10167
3.07093
3.03822
0.00174484
0.027508
0.0507004
0.0613398
0.0659567
0.0673809
0.0669244
0.0651263
0.0625027
0.0594924
0.0564675
0.05371
0.051445
0.0498947
0.0492105
0.0491365
0.0500496
0.0519119
0.0547865
0.0587254
0.0638052
0.0700253
0.077349
0.0856406
0.0947106
0.104347
0.114302
0.124392
0.134468
0.144563
0.15485
0.165743
0.177659
0.191032
0.2061
0.222981
0.241576
0.26173
0.283202
0.305782
0.32927
0.353511
0.378402
0.403871
0.429919
0.456567
0.483904
0.512001
0.540979
0.570926
0.601958
0.634153
0.66761
0.702393
0.738575
0.776195
0.815294
0.855891
0.898008
0.941648
0.98681
1.03349
1.08167
1.13134
1.18247
1.23506
1.28907
1.34447
1.40122
1.45928
1.51859
1.5791
1.64072
1.70336
1.76689
1.83118
1.89609
1.9615
2.0273
2.09335
2.15951
2.22568
2.29177
2.3577
2.42342
2.48882
2.55384
2.61838
2.68236
2.74574
2.80847
2.87054
2.93191
2.99253
3.05235
3.11133
3.16942
3.22657
3.28276
3.33792
3.39203
3.44501
3.49682
3.54739
3.59669
3.64466
3.69125
3.73642
3.78012
3.82228
3.86287
3.90183
3.93912
3.97469
4.0085
4.04057
4.0709
4.09947
4.12628
4.15131
4.17456
4.19601
4.21568
4.23357
4.24968
4.26401
4.27658
4.2874
4.29647
4.30381
4.30941
4.31329
4.31547
4.31599
4.31491
4.31211
4.30767
4.30166
4.29409
4.28499
4.27437
4.26227
4.24872
4.23374
4.21736
4.19964
4.18059
4.16028
4.13874
4.11602
4.09216
4.06721
4.04118
4.01411
3.98608
3.95716
3.92745
3.897
3.86588
3.83416
3.8019
3.76915
3.73596
3.70238
3.66842
3.63415
3.59963
3.56494
3.53015
3.49531
3.46049
3.42575
3.39115
3.35676
3.32265
3.28893
3.25565
3.22292
3.19002
3.15548
0.00240894
0.0325215
0.0573299
0.0684709
0.073204
0.0745836
0.0739852
0.0720058
0.0692331
0.0662152
0.0634454
0.0612287
0.0597802
0.0591543
0.0591509
0.060149
0.0621016
0.0649615
0.068746
0.0734298
0.0789941
0.0853724
0.092488
0.100231
0.108513
0.117254
0.126373
0.135871
0.145789
0.15631
0.16763
0.180029
0.193671
0.208715
0.225151
0.242951
0.261968
0.282078
0.303118
0.324973
0.347538
0.370748
0.394577
0.419015
0.444103
0.46989
0.49648
0.523952
0.552427
0.581986
0.612746
0.64479
0.678225
0.713122
0.749565
0.787606
0.827304
0.8687
0.911832
0.956728
1.00341
1.05188
1.10214
1.1542
1.20804
1.26365
1.32099
1.38003
1.44072
1.50296
1.56668
1.63175
1.69807
1.76549
1.83385
1.90297
1.97268
2.04285
2.11333
2.184
2.25475
2.32546
2.39604
2.46645
2.53658
2.60635
2.67565
2.74437
2.8124
2.87964
2.94612
3.01184
3.07674
3.1408
3.20394
3.26611
3.32726
3.38736
3.44636
3.50421
3.56088
3.6163
3.67042
3.72318
3.77453
3.82443
3.87282
3.91967
3.96493
4.00853
4.05044
4.09059
4.12895
4.16548
4.20013
4.23292
4.26385
4.29289
4.32004
4.34528
4.36861
4.39003
4.40953
4.42714
4.44287
4.45671
4.46869
4.47883
4.48713
4.49362
4.49831
4.50122
4.50238
4.50187
4.49965
4.49561
4.48991
4.48259
4.47366
4.46315
4.45108
4.43749
4.4224
4.40585
4.38787
4.3685
4.34778
4.32577
4.3025
4.27802
4.25239
4.22565
4.19782
4.16888
4.13897
4.10817
4.07655
4.04419
4.01115
3.97748
3.94326
3.90854
3.87337
3.8378
3.80181
3.76548
3.7289
3.69214
3.65527
3.61837
3.58147
3.54465
3.50796
3.47144
3.43518
3.3993
3.36386
3.32899
3.29402
3.25778
0.0030313
0.0370655
0.0635249
0.0754234
0.0804904
0.0819629
0.0812639
0.0789979
0.0760856
0.0732711
0.0710184
0.0696255
0.0690566
0.0690122
0.0698582
0.0715917
0.074189
0.0775782
0.0817435
0.0866291
0.0922235
0.0984637
0.105337
0.112809
0.120854
0.129478
0.138696
0.148592
0.159234
0.170769
0.183263
0.196842
0.211509
0.227299
0.244136
0.261979
0.280722
0.3003
0.320637
0.341686
0.363427
0.385844
0.408966
0.432812
0.45743
0.482872
0.509248
0.536635
0.565142
0.594861
0.625897
0.658353
0.692316
0.727893
0.765148
0.804179
0.845033
0.887797
0.932509
0.979247
1.02803
1.07891
1.13189
1.18697
1.24417
1.30346
1.36482
1.42817
1.49344
1.5605
1.6292
1.69935
1.77075
1.84317
1.91647
1.99042
2.06483
2.13954
2.21433
2.2892
2.36412
2.43894
2.5136
2.58804
2.66216
2.73583
2.80892
2.88128
2.9528
3.02339
3.09312
3.16195
3.22984
3.29673
3.36257
3.42728
3.49083
3.55317
3.61425
3.67406
3.73254
3.78965
3.84531
3.89949
3.95213
4.00318
4.0526
4.10037
4.14642
4.1907
4.23317
4.27378
4.31247
4.34924
4.38408
4.41696
4.44783
4.4767
4.50353
4.52834
4.55111
4.57185
4.59057
4.60728
4.62201
4.63477
4.64559
4.65447
4.66146
4.66657
4.66987
4.67138
4.67114
4.66924
4.66541
4.65984
4.65258
4.64367
4.63312
4.62097
4.60725
4.59198
4.5752
4.55694
4.53724
4.51614
4.49369
4.46992
4.44489
4.41865
4.39125
4.36274
4.33315
4.30247
4.27083
4.23829
4.20494
4.17082
4.136
4.10055
4.06453
4.02801
3.99103
3.95365
3.91581
3.87762
3.83917
3.80055
3.76182
3.72303
3.68426
3.64554
3.60694
3.56847
3.53024
3.49237
3.45493
3.41809
3.38119
3.34346
0.00362077
0.0410076
0.069267
0.0822022
0.0878015
0.089431
0.0886284
0.0861716
0.0833271
0.0809158
0.079358
0.0786905
0.0785802
0.0791809
0.0805437
0.0827101
0.0856622
0.089317
0.0936933
0.0987211
0.104441
0.110803
0.117855
0.125561
0.133981
0.143119
0.153012
0.163711
0.175224
0.187624
0.20089
0.215087
0.230128
0.246076
0.262818
0.280406
0.298749
0.317891
0.337784
0.358474
0.379962
0.402303
0.425593
0.449778
0.474853
0.500925
0.528168
0.556587
0.5863
0.617329
0.649823
0.6838
0.719426
0.756723
0.795854
0.836852
0.879858
0.924917
0.972139
1.02159
1.07337
1.1275
1.18402
1.24292
1.3042
1.36785
1.43383
1.50208
1.57247
1.64485
1.71898
1.79458
1.87127
1.94869
2.02673
2.10526
2.18412
2.26296
2.34168
2.42029
2.49886
2.57713
2.65519
2.73302
2.81044
2.88721
2.96324
3.03838
3.11257
3.18578
3.25797
3.32907
3.39904
3.46781
3.53533
3.60153
3.66638
3.72984
3.7919
3.85253
3.91169
3.96934
4.02542
4.07988
4.13267
4.18377
4.23313
4.28072
4.3265
4.37042
4.41242
4.45246
4.49047
4.52645
4.56039
4.59227
4.62205
4.64973
4.6753
4.69876
4.72011
4.73935
4.7565
4.7716
4.78465
4.79569
4.80473
4.8118
4.81693
4.82017
4.82157
4.82119
4.81917
4.81518
4.80942
4.80192
4.79274
4.7819
4.76945
4.75541
4.73981
4.72268
4.70406
4.68398
4.66248
4.6396
4.61537
4.58985
4.56308
4.53511
4.506
4.47579
4.44454