/*--------------------------------*- C++ -*----------------------------------*\
  =========                 |
  \\      /  F ield         | OpenFOAM: The Open Source CFD Toolbox
   \\    /   O peration     | Website:  https://openfoam.org
    \\  /    A nd           | Version:  13
     \\/     M anipulation  |
\*---------------------------------------------------------------------------*/
FoamFile
{
    format      ascii;
    class       volScalarField;
    location    "1000";
    object      nut;
}
// * * * * * * * * * * * * * * * * * * * * * * * * * * * * * * * * * * * * * //

dimensions      [0 2 -1 0 0 0 0];

internalField   nonuniform List<scalar> 
12225
(
4.15299e-06
2.03358e-05
2.2325e-05
2.0398e-05
2.27364e-05
1.42117e-05
3.25073e-05
2.53596e-05
3.0065e-05
3.32074e-05
2.67623e-05
1.98724e-05
1.80717e-05
1.7418e-05
1.68923e-05
1.74398e-05
2.50717e-05
3.1294e-05
4.42707e-08
8.56428e-08
2.07889e-07
2.77968e-07
1.19779e-06
1.3259e-06
2.81013e-06
4.22588e-06
6.85155e-06
1.28453e-05
9.87701e-05
2.55576e-05
1.31505e-05
1.12114e-05
1.28045e-05
1.5559e-05
2.16347e-05
2.35302e-05
6.35034e-07
3.54686e-07
1.97526e-07
1.06103e-07
9.98403e-08
1.44789e-07
2.90667e-07
6.98314e-07
5.68344e-07
3.1646e-07
1.17576e-06
1.64967e-06
1.23382e-06
1.46212e-06
2.15669e-06
3.34787e-06
4.09828e-06
5.25132e-06
5.12982e-06
3.59257e-06
1.65135e-06
9.80389e-07
1.28676e-06
5.67712e-07
3.82746e-07
5.77912e-07
8.26334e-07
5.68828e-07
1.12331e-06
1.21129e-06
1.33209e-06
1.35483e-06
1.32837e-06
1.65568e-06
2.56492e-06
3.62287e-06
0.000111718
5.99503e-05
3.34231e-05
1.52323e-05
1.04361e-05
1.40925e-05
1.48672e-05
1.19873e-05
1.33874e-05
1.28089e-05
1.05312e-05
9.55651e-06
9.08583e-06
9.31275e-06
9.85321e-06
1.05938e-05
1.16508e-05
1.3101e-05
0.00453098
0.000184312
0.000168471
6.92533e-05
7.60018e-05
5.94663e-05
5.06348e-05
4.82983e-05
4.8634e-05
5.00694e-05
5.12531e-05
5.00445e-05
4.77547e-05
4.64523e-05
4.5732e-05
4.4579e-05
4.61355e-05
4.75114e-05
0.00303663
0.000496309
0.00059862
0.000408305
0.000199575
0.0001343
0.00014006
0.000126936
0.000121082
0.000121553
0.000120582
0.000119042
0.000117412
0.000116041
0.000115716
0.000115751
0.000118605
0.000120463
0.000985927
0.000686159
0.000694163
0.000617405
0.000468681
0.000374345
0.00031515
0.000284524
0.000272284
0.000264122
0.000255247
0.000249549
0.000244267
0.00024116
0.000237141
0.000237585
0.000246495
0.000243221
0.000874513
0.000829299
0.00075028
0.000715171
0.000666877
0.000607773
0.000551524
0.000511984
0.000481937
0.000461659
0.000444779
0.000433454
0.000422459
0.000414408
0.000409847
0.000402266
0.000406085
0.00040408
0.000856981
0.000852572
0.000830528
0.000810842
0.000779184
0.000748954
0.000722741
0.000695278
0.000671013
0.000647847
0.000629015
0.000611985
0.000600406
0.000588547
0.000581611
0.000571777
0.000567258
0.000562823
0.000851112
0.000853753
0.000848656
0.000843002
0.000832156
0.000820015
0.000808033
0.000795338
0.000781802
0.000767322
0.00075407
0.000741418
0.00073152
0.000722041
0.000714582
0.000708346
0.000703114
0.000695978
0.000851165
0.000851399
0.000850213
0.000848682
0.000844917
0.000842253
0.000837069
0.000831596
0.000825684
0.000818503
0.000811397
0.000804396
0.000797903
0.000792496
0.000787129
0.000783224
0.000777645
0.000774271
0.000851418
0.000850783
0.000850048
0.00084921
0.000848065
0.000846925
0.000845293
0.000843378
0.000841162
0.000838442
0.000835629
0.000832645
0.000830003
0.000827406
0.000825434
0.000823149
0.000822046
0.000819577
0.00085152
0.000850677
0.000849895
0.000849114
0.000848357
0.000847649
0.000846912
0.00084605
0.00084519
0.000844121
0.000843105
0.000841937
0.000840953
0.000839885
0.000839085
0.000838162
0.000837576
0.000836728
0.000851539
0.000850672
0.000849866
0.000849081
0.00084835
0.000847644
0.000846998
0.000846333
0.000845719
0.000845067
0.000844461
0.000843825
0.000843247
0.000842664
0.000842142
0.000841628
0.000841166
0.000840707
0.000851539
0.000850673
0.000849857
0.000849074
0.000848338
0.000847629
0.000846965
0.000846321
0.000845717
0.000845126
0.00084457
0.000844026
0.000843512
0.000843014
0.000842542
0.000842087
0.000841657
0.000841242
0.000851538
0.000850673
0.000849852
0.000849071
0.000848329
0.000847622
0.000846949
0.000846307
0.000845695
0.00084511
0.000844552
0.000844017
0.000843506
0.000843016
0.000842547
0.000842098
0.000841668
0.000841257
0.000851538
0.000850677
0.000849858
0.000849079
0.000848336
0.00084763
0.000846956
0.000846314
0.000845701
0.000845115
0.000844555
0.00084402
0.000843506
0.000843016
0.000842546
0.000842097
0.000841665
0.000841254
0.000851537
0.000850674
0.000849852
0.000849071
0.000848326
0.000847618
0.000846942
0.000846299
0.000845683
0.000845095
0.000844531
0.000843994
0.000843477
0.000842985
0.000842512
0.000842061
0.000841628
0.000841216
0.000851537
0.000850675
0.000849853
0.000849074
0.000848319
0.000847615
0.000846931
0.000846293
0.000845659
0.000845063
0.000844466
0.000843903
0.000843346
0.000842828
0.000842319
0.000841856
0.000841394
0.000840985
0.000851556
0.00085067
0.000849926
0.000849098
0.000848235
0.00084749
0.000846702
0.000846032
0.000845169
0.000844433
0.000843467
0.000842582
0.000841604
0.000840722
0.000839858
0.000839154
0.000838403
0.000837895
0.000851734
0.000850699
0.000850937
0.000849072
0.000847171
0.000845532
0.000843529
0.000842234
0.000838956
0.000838751
0.000835377
0.000832151
0.000827572
0.000823122
0.00082083
0.000817267
0.000814573
0.000811771
0.000853199
0.000851283
0.000846777
0.000841715
0.000835177
0.00082712
0.000819126
0.000811551
0.000801971
0.000791111
0.000777419
0.000764624
0.000749624
0.000737397
0.000725041
0.000715164
0.000705254
0.000698233
0.000845675
0.00085958
0.000831674
0.00081478
0.000789175
0.000758076
0.000728055
0.000696136
0.000665416
0.000633476
0.000604587
0.000577824
0.000552286
0.000531627
0.000513245
0.000497707
0.000483532
0.000473972
0.000855356
0.000849117
0.000731616
0.000688379
0.000626709
0.000548734
0.000489881
0.000437275
0.000393552
0.000357379
0.000348527
0.00033412
0.000319361
0.000298184
0.000298193
0.000288183
0.000274128
0.000270354
0.000986349
0.000573994
0.000457848
0.000381577
0.000272136
0.000186784
0.000204605
0.000184789
0.000148432
0.000145336
0.000125797
0.000116147
0.000107392
0.000101751
9.58199e-05
9.38874e-05
9.05363e-05
8.83355e-05
0.000286371
0.000198407
0.000136017
0.000137377
0.000125326
0.000102176
8.00397e-05
4.7617e-05
5.3466e-05
4.0486e-05
3.43161e-05
3.07763e-05
2.83661e-05
2.62706e-05
2.47236e-05
2.31887e-05
2.24025e-05
2.16723e-05
0.00015257
4.76868e-05
3.80765e-05
2.75331e-05
2.77213e-05
2.16346e-05
1.91215e-05
1.32223e-05
1.39285e-05
1.16631e-05
1.1048e-05
1.09284e-05
1.07384e-05
1.09117e-05
1.11687e-05
1.15614e-05
1.19755e-05
1.25411e-05
0.000207799
0.000125766
6.59922e-05
5.23944e-05
5.06691e-05
4.67086e-05
4.41122e-05
3.52872e-05
3.49543e-05
3.2692e-05
2.93951e-05
2.68e-05
2.90686e-05
2.96652e-05
3.13651e-05
3.2846e-05
3.43257e-05
3.55712e-05
9.65287e-06
1.53759e-05
1.90552e-05
2.10811e-05
2.18966e-05
2.21022e-05
2.20787e-05
2.17096e-05
2.12571e-05
2.07818e-05
2.02946e-05
1.98415e-05
1.94345e-05
1.90804e-05
1.87691e-05
1.85096e-05
1.82816e-05
1.80953e-05
1.39598e-12
1.60106e-10
8.15093e-10
3.16799e-09
1.04363e-08
3.1312e-08
8.21233e-08
1.64336e-07
2.71245e-07
3.88549e-07
4.98879e-07
5.88266e-07
6.51959e-07
6.86966e-07
6.83143e-07
6.58819e-07
6.2257e-07
5.49528e-07
4.69315e-07
4.0222e-07
3.39614e-07
2.78476e-07
2.17639e-07
1.60594e-07
1.0798e-07
6.51228e-08
3.51978e-08
1.76549e-08
8.73251e-09
4.4986e-09
2.51074e-09
1.66629e-09
1.53628e-09
2.73306e-09
7.13869e-09
1.62613e-08
9.70023e-08
1.98151e-07
3.62456e-07
4.83945e-07
4.78853e-07
4.29618e-07
3.37191e-07
2.82354e-07
2.79538e-07
3.1244e-07
3.75623e-07
5.87415e-07
1.00287e-06
2.49748e-06
7.73061e-06
1.94998e-05
3.34849e-05
4.23077e-05
4.31363e-05
3.05193e-05
3.39592e-05
4.03618e-05
3.99683e-05
3.34806e-05
3.74341e-05
3.97183e-05
3.32594e-05
3.15359e-05
3.27668e-05
3.31931e-05
3.3871e-05
3.43831e-05
3.50009e-05
3.55118e-05
3.60842e-05
3.65991e-05
3.71377e-05
3.76526e-05
3.81695e-05
3.86803e-05
3.91834e-05
3.96887e-05
4.01849e-05
4.06867e-05
4.11795e-05
4.16786e-05
4.21706e-05
4.26686e-05
4.31608e-05
4.36576e-05
4.41506e-05
4.46467e-05
4.5141e-05
4.56379e-05
4.61328e-05
4.6626e-05
4.71156e-05
4.76034e-05
4.8088e-05
4.85703e-05
4.90489e-05
4.95253e-05
5.00006e-05
5.048e-05
5.09705e-05
5.14657e-05
5.19632e-05
5.24661e-05
5.2976e-05
5.3491e-05
5.40137e-05
5.45412e-05
5.5077e-05
5.5618e-05
5.61684e-05
5.67246e-05
5.72915e-05
5.78651e-05
5.84503e-05
5.90435e-05
5.96495e-05
6.0265e-05
6.08945e-05
6.15354e-05
6.21922e-05
6.2864e-05
6.35537e-05
6.4261e-05
6.49876e-05
6.57347e-05
6.65035e-05
6.72966e-05
6.81129e-05
6.89547e-05
6.9829e-05
7.0771e-05
7.17489e-05
7.27612e-05
7.38294e-05
7.49505e-05
7.61319e-05
7.73859e-05
7.78246e-05
7.76019e-05
7.73579e-05
7.71053e-05
7.68403e-05
7.65641e-05
7.6276e-05
7.59774e-05
7.56677e-05
7.53465e-05
7.50208e-05
7.46723e-05
7.43283e-05
7.39756e-05
7.35957e-05
7.32371e-05
7.28385e-05
7.24591e-05
7.20554e-05
7.16566e-05
7.12471e-05
7.08367e-05
7.04213e-05
7.00053e-05
6.95876e-05
6.91697e-05
6.87521e-05
6.83351e-05
6.79194e-05
6.75052e-05
6.70938e-05
6.66848e-05
6.62796e-05
6.58775e-05
6.54785e-05
6.50804e-05
6.46794e-05
6.42672e-05
6.38326e-05
6.33472e-05
6.27557e-05
6.1192e-05
7.80535e-12
1.277e-09
1.69151e-08
8.62215e-08
3.43269e-07
1.12475e-06
2.50251e-06
4.53172e-06
7.11431e-06
1.01266e-05
1.33e-05
1.63287e-05
1.89905e-05
2.10518e-05
2.24424e-05
2.27871e-05
2.26292e-05
2.21337e-05
1.98984e-05
1.73304e-05
1.37952e-05
1.04369e-05
7.51316e-06
5.21879e-06
3.34776e-06
2.07723e-06
1.25431e-06
7.67042e-07
4.67719e-07
2.90946e-07
1.96071e-07
1.49879e-07
1.48743e-07
1.91562e-07
4.6455e-07
7.51488e-07
5.66341e-06
1.09031e-05
1.86937e-05
2.3332e-05
2.39627e-05
2.21688e-05
1.90386e-05
1.60027e-05
1.4911e-05
1.53003e-05
1.59408e-05
1.90079e-05
2.57906e-05
3.70366e-05
4.78287e-05
5.96887e-05
6.96992e-05
7.91777e-05
8.63089e-05
9.32599e-05
0.000105834
0.000117304
0.000131439
0.000141514
0.000159645
0.000173893
0.000185752
0.000193919
0.000207689
0.000219117
0.000230724
0.000241809
0.000252556
0.000262833
0.000272849
0.000282595
0.000292091
0.000301401
0.000310504
0.000319463
0.000328253
0.00033692
0.000345446
0.000353867
0.00036216
0.000370356
0.000378434
0.00038642
0.000394293
0.000402076
0.00040975
0.000417332
0.000424805
0.000432181
0.000439443
0.000446598
0.000453625
0.000460526
0.000467279
0.000473866
0.000480246
0.000486365
0.000492138
0.000497449
0.000502142
0.000506605
0.000511003
0.000515244
0.00051939
0.000523405
0.000527305
0.000531078
0.000534726
0.000538244
0.000541633
0.000544891
0.000548018
0.000551012
0.000553874
0.000556602
0.000559198
0.00056166
0.000563992
0.00056619
0.000568257
0.00057019
0.00057199
0.000573655
0.000575185
0.000576579
0.000577835
0.000578953
0.000579929
0.000580756
0.000581421
0.00058192
0.000582277
0.000582499
0.000582408
0.000582517
0.000582239
0.000582141
0.000582225
0.000582331
0.000582162
0.000581886
0.000581477
0.000580937
0.000580262
0.00057945
0.000578491
0.000577538
0.000576228
0.000574821
0.000573673
0.00057181
0.000570428
0.00056832
0.000566713
0.000564453
0.000562389
0.000560095
0.000557772
0.000555325
0.000552821
0.000550234
0.000547592
0.00054489
0.00054214
0.000539339
0.000536495
0.000533606
0.000530682
0.00052772
0.000524729
0.000521703
0.000518641
0.000515523
0.000512285
0.000508852
0.000505092
0.000500701
0.000494932
0.000478918
1.8895e-11
3.29708e-09
6.29354e-08
3.64648e-07
9.96128e-07
2.59346e-06
5.5716e-06
9.83956e-06
1.52489e-05
2.14738e-05
2.81814e-05
3.48877e-05
4.10519e-05
4.63086e-05
5.05754e-05
5.32355e-05
5.49154e-05
5.59333e-05
5.50406e-05
5.28725e-05
4.86262e-05
4.36216e-05
3.68756e-05
2.97057e-05
2.29039e-05
1.67918e-05
1.16098e-05
7.75515e-06
4.94003e-06
3.131e-06
2.08344e-06
1.5077e-06
1.27725e-06
1.16178e-06
2.70531e-06
6.37122e-06
2.41558e-05
4.51283e-05
6.12732e-05
6.70779e-05
6.25731e-05
5.12638e-05
4.242e-05
4.20159e-05
4.7817e-05
5.473e-05
6.39576e-05
7.57468e-05
8.79328e-05
0.000100773
0.000117837
0.000136616
0.000157329
0.000179714
0.000204818
0.000233169
0.000264265
0.000294012
0.000324818
0.000353722
0.00038425
0.000412988
0.000439649
0.000464679
0.000489632
0.000513704
0.000536452
0.000558421
0.000579496
0.000599968
0.000619884
0.000639331
0.000658351
0.000677014
0.000695338
0.000713371
0.00073112
0.000748616
0.000765863
0.000782879
0.000799664
0.000816229
0.000832572
0.000848701
0.000864609
0.000880301
0.000895769
0.000911015
0.000926028
0.000940805
0.000955332
0.000969596
0.000983573
0.000997248
0.00101059
0.00102357
0.00103615
0.00104827
0.00105991
0.00107105
0.00108175
0.00109222
0.00110244
0.0011124
0.0011221
0.00113154
0.00114071
0.0011496
0.00115822
0.00116655
0.00117459
0.00118235
0.00118981
0.00119699
0.00120387
0.00121047
0.00121678
0.00122279
0.00122853
0.00123398
0.00123914
0.00124401
0.0012486
0.00125291
0.00125692
0.00126064
0.00126408
0.00126722
0.00127006
0.00127259
0.00127481
0.00127672
0.00127833
0.00127966
0.00128066
0.00128149
0.00128189
0.00128225
0.00128248
0.0012825
0.00128217
0.00128156
0.00128065
0.00127944
0.00127792
0.00127611
0.00127397
0.0012717
0.00126885
0.00126578
0.00126283
0.00125895
0.00125548
0.00125104
0.00124701
0.0012422
0.00123744
0.00123233
0.00122708
0.0012216
0.00121598
0.0012102
0.0012043
0.00119828
0.00119216
0.00118594
0.00117964
0.00117326
0.0011668
0.00116028
0.00115371
0.00114707
0.00114037
0.00113354
0.00112648
0.00111902
0.00111087
0.00110126
0.00108833
0.00105932
5.9234e-11
9.88774e-09
1.62789e-07
7.3137e-07
2.17566e-06
6.01338e-06
1.22039e-05
2.06019e-05
3.06762e-05
4.14467e-05
5.20126e-05
6.19241e-05
7.0636e-05
7.76841e-05
8.29157e-05
8.67876e-05
8.86825e-05
8.91157e-05
8.82337e-05
8.58555e-05
8.19524e-05
7.72402e-05
7.07266e-05
6.28853e-05
5.366e-05
4.40026e-05
3.45391e-05
2.62918e-05
1.95103e-05
1.43258e-05
1.02259e-05
7.77736e-06
6.15255e-06
7.34557e-06
1.34976e-05
3.1683e-05
5.64131e-05
7.44805e-05
8.399e-05
8.03256e-05
7.65742e-05
7.62625e-05
7.96941e-05
8.70324e-05
9.78078e-05
0.000110593
0.000121909
0.000141158
0.0001643
0.000190396
0.000222639
0.000257326
0.000295778
0.000336476
0.000379384
0.000423518
0.000468081
0.000511324
0.000554269
0.00059549
0.000635241
0.000674943
0.000711511
0.000747406
0.000781699
0.000814811
0.000846664
0.000877583
0.000907635
0.000936972
0.000965667
0.000993804
0.00102144
0.00104863
0.0010754
0.00110179
0.00112781
0.00115349
0.00117882
0.00120382
0.00122849
0.00125284
0.00127685
0.00130053
0.00132388
0.00134689
0.00136956
0.00139187
0.00141382
0.00143539
0.00145659
0.00147737
0.00149773
0.00151764
0.00153708
0.00155603
0.00157447
0.00159239
0.00160979
0.0016267
0.00164318
0.00165929
0.00167502
0.00169035
0.00170529
0.00171983
0.00173395
0.00174766
0.00176093
0.00177378
0.00178619
0.00179816
0.0018097
0.00182079
0.00183145
0.00184167
0.00185146
0.00186081
0.00186973
0.00187823
0.00188629
0.00189392
0.00190112
0.00190789
0.00191422
0.00192013
0.0019256
0.00193063
0.00193522
0.00193937
0.00194308
0.00194634
0.00194916
0.00195155
0.00195351
0.00195501
0.00195607
0.00195684
0.00195729
0.00195731
0.00195687
0.00195599
0.00195467
0.0019529
0.00195069
0.00194804
0.00194492
0.00194148
0.00193743
0.00193299
0.00192838
0.00192299
0.0019176
0.00191142
0.00190522
0.00189837
0.00189133
0.00188389
0.00187618
0.00186819
0.00185996
0.00185151
0.00184287
0.00183406
0.00182511
0.00181602
0.0018068
0.00179747
0.00178804
0.00177851
0.00176891
0.00175923
0.00174945
0.00173951
0.00172927
0.00171853
0.00170688
0.00169325
0.00167517
0.00164086
1.87853e-10
2.88254e-08
3.47566e-07
1.6307e-06
5.71992e-06
1.41648e-05
2.67423e-05
4.21663e-05
5.86063e-05
7.44261e-05
8.84633e-05
9.98145e-05
0.000108051
0.00011423
0.000118033
0.000120074
0.000120565
0.000119647
0.000117506
0.000114278
0.000109691
0.000104392
9.77514e-05
9.01735e-05
8.09553e-05
7.05613e-05
5.93956e-05
4.85435e-05
3.8985e-05
3.1235e-05
2.51237e-05
1.98727e-05
1.97776e-05
2.74874e-05
4.83341e-05
7.33913e-05
8.86325e-05
9.59705e-05
9.92667e-05
0.000101989
0.000107015
0.000115697
0.000128887
0.00014018
0.000152574
0.00017356
0.000202515
0.000234276
0.000273019
0.000315498
0.000362945
0.000412323
0.000464342
0.000517405
0.000571227
0.000624942
0.000678032
0.000729682
0.00078032
0.000829371
0.000876428
0.000923242
0.000967783
0.00101071
0.00105237
0.00109284
0.00113217
0.00117055
0.00120806
0.00124482
0.00128091
0.00131638
0.0013513
0.00138571
0.00141963
0.00145309
0.00148611
0.00151869
0.00155084
0.00158255
0.00161384
0.00164469
0.0016751
0.00170507
0.00173459
0.00176365
0.00179226
0.00182039
0.00184804
0.0018752
0.00190186
0.001928
0.00195361
0.00197866
0.00200315
0.00202708
0.00205043
0.00207321
0.00209545
0.00211716
0.00213835
0.00215906
0.00217926
0.00219896
0.00221814
0.00223679
0.00225491
0.00227249
0.00228952
0.002306
0.00232191
0.00233727
0.00235206
0.00236629
0.00237996
0.00239307
0.00240562
0.00241762
0.00242907
0.00243997
0.00245032
0.00246013
0.00246938
0.00247808
0.00248624
0.00249385
0.00250091
0.00250743
0.00251339
0.0025188
0.00252367
0.00252802
0.00253177
0.00253502
0.00253769
0.00253973
0.00254134
0.00254246
0.00254309
0.00254318
0.00254272
0.00254171
0.00254015
0.00253805
0.0025354
0.00253221
0.00252847
0.00252425
0.00251942
0.00251409
0.00250838
0.00250201
0.00249533
0.002488
0.00248036
0.00247216
0.0024636
0.0024546
0.00244526
0.00243557
0.00242558
0.00241532
0.00240481
0.0023941
0.0023832
0.00237211
0.00236086
0.00234947
0.00233793
0.00232629
0.00231453
0.00230266
0.00229066
0.00227848
0.00226599
0.00225298
0.00223903
0.00222305
0.00220225
0.00216779
5.90155e-10
7.05945e-08
8.40202e-07
4.30501e-06
1.46995e-05
3.19266e-05
5.34235e-05
7.60738e-05
9.68138e-05
0.000113767
0.000126572
0.000136098
0.000142314
0.000145763
0.00014719
0.00014708
0.000145736
0.000143326
0.000140004
0.000135793
0.000130563
0.000124713
0.000117882
0.000109845
0.000100669
8.91651e-05
7.40329e-05
5.94919e-05
4.59465e-05
3.5209e-05
3.07925e-05
3.2579e-05
4.53251e-05
6.87164e-05
9.13506e-05
0.000107103
0.000116695
0.000122692
0.000129084
0.000139551
0.000155723
0.000165878
0.00017879
0.00020146
0.000230508
0.000265594
0.000308037
0.00035471
0.00040696
0.000461777
0.000519498
0.000578324
0.000638295
0.000698426
0.000758394
0.000817685
0.000876026
0.000932749
0.000988209
0.00104284
0.0010955
0.00114721
0.00119721
0.00124587
0.00129328
0.00133957
0.0013848
0.0014291
0.00147255
0.00151524
0.00155723
0.00159858
0.00163932
0.0016795
0.00171913
0.00175823
0.00179681
0.00183486
0.00187239
0.0019094
0.00194588
0.00198182
0.00201722
0.00205207
0.00208637
0.00212011
0.00215328
0.00218589
0.00221791
0.00224935
0.00228019
0.00231043
0.00234005
0.00236904
0.00239741
0.00242514
0.00245224
0.00247873
0.00250461
0.0025299
0.00255459
0.00257868
0.00260218
0.00262508
0.00264736
0.00266903
0.00269006
0.00271046
0.00273022
0.00274932
0.00276778
0.00278558
0.00280272
0.0028192
0.00283503
0.0028502
0.00286473
0.00287861
0.00289185
0.00290445
0.00291641
0.00292773
0.00293841
0.00294847
0.00295788
0.00296667
0.00297482
0.00298235
0.00298925
0.00299553
0.00300125
0.00300629
0.00301071
0.00301455
0.00301768
0.00302015
0.00302213
0.00302353
0.00302434
0.00302454
0.00302413
0.00302311
0.00302148
0.00301925
0.00301643
0.00301301
0.00300898
0.0030044
0.00299922
0.00299347
0.00298722
0.00298038
0.00297307
0.00296518
0.00295683
0.00294795
0.00293862
0.00292883
0.00291864
0.00290807
0.00289715
0.00288592
0.00287441
0.00286264
0.00285065
0.00283844
0.00282603
0.00281343
0.00280067
0.00278777
0.00277473
0.00276156
0.00274826
0.00273477
0.002721
0.00270675
0.00269166
0.00267476
0.00265347
0.00262106
1.87125e-09
1.7604e-07
2.2245e-06
1.20103e-05
3.27799e-05
6.02226e-05
8.72262e-05
0.000109659
0.00012731
0.000140793
0.000151265
0.000158121
0.000162132
0.000163949
0.000164135
0.000163063
0.000160968
0.000157995
0.000154147
0.000149432
0.000143732
0.000137316
0.000129661
0.000118189
0.00010143
8.63281e-05
7.28889e-05
6.07132e-05
5.14679e-05
4.9175e-05
5.81318e-05
7.50293e-05
0.000100392
0.000118912
0.00013294
0.00014292
0.000151324
0.000162273
0.000179005
0.000189145
0.000201356
0.000223497
0.000251632
0.000286977
0.000329088
0.000377541
0.000431544
0.00048894
0.00054954
0.000611687
0.000675215
0.000739209
0.000803433
0.000867358
0.000930744
0.000992978
0.0010542
0.0011147
0.00117372
0.00123162
0.00128807
0.00134339
0.00139736
0.00145012
0.00150174
0.00155231
0.00160191
0.00165062
0.0016985
0.00174562
0.00179203
0.00183777
0.00188289
0.00192739
0.0019713
0.00201461
0.00205734
0.00209947
0.002141
0.00218192
0.00222222
0.0022619
0.00230095
0.00233936
0.00237713
0.00241426
0.00245073
0.00248655
0.00252171
0.00255621
0.00259005
0.00262322
0.00265571
0.00268752
0.00271864
0.00274909
0.00277884
0.00280792
0.0028363
0.00286401
0.00289106
0.00291745
0.00294317
0.00296822
0.00299259
0.00301627
0.00303925
0.00306153
0.0030831
0.00310395
0.00312409
0.00314351
0.00316221
0.00318022
0.0031975
0.00321407
0.00322992
0.00324507
0.0032595
0.00327322
0.00328624
0.00329856
0.00331018
0.00332111
0.00333134
0.00334088
0.00334974
0.00335791
0.0033654
0.00337224
0.00337849
0.00338398
0.00338882
0.00339302
0.00339645
0.00339924
0.00340146
0.00340305
0.003404
0.00340431
0.00340398
0.00340301
0.00340141
0.00339918
0.00339634
0.00339292
0.00338892
0.00338433
0.00337916
0.0033734
0.00336709
0.00336022
0.00335282
0.00334486
0.00333639
0.0033274
0.00331793
0.00330798
0.0032976
0.00328682
0.00327566
0.00326416
0.00325235
0.00324025
0.00322789
0.00321527
0.00320243
0.00318936
0.00317609
0.00316265
0.00314906
0.00313531
0.00312142
0.00310735
0.00309304
0.00307833
0.00306293
0.00304605
0.00302568
0.00299644
5.63543e-09
4.59725e-07
5.91912e-06
2.65477e-05
5.83342e-05
9.17573e-05
0.000120329
0.000142368
0.000157888
0.000168105
0.000173443
0.000175856
0.000176508
0.000175891
0.000174306
0.000171955
0.000168887
0.000164971
0.000160171
0.000154472
0.000148096
0.000140801
0.000127689
0.000110362
9.47802e-05
8.13424e-05
7.14912e-05
6.85077e-05
7.42447e-05
8.29337e-05
0.000104447
0.000131071
0.000154861
0.000166938
0.000177414
0.000189231
0.000202655
0.000209369
0.000221511
0.000241267
0.000267185
0.000300827
0.000340998
0.000387982
0.000440868
0.000498623
0.000559871
0.000623272
0.00068832
0.000754194
0.000820586
0.000887041
0.000953306
0.00101879
0.00108347
0.00114786
0.00121104
0.00127323
0.00133425
0.00139417
0.00145289
0.00151051
0.00156699
0.00162238
0.00167675
0.00173015
0.00178264
0.00183428
0.00188513
0.00193523
0.00198464
0.00203338
0.00208147
0.00212894
0.00217578
0.00222199
0.00226756
0.00231249
0.00235676
0.00240035
0.00244326
0.00248547
0.00252699
0.00256779
0.00260788
0.00264727
0.00268592
0.00272387
0.0027611
0.00279763
0.00283344
0.00286854
0.00290292
0.00293659
0.00296954
0.00300177
0.00303329
0.00306407
0.00309412
0.00312348
0.00315214
0.00318011
0.00320737
0.00323392
0.00325975
0.00328486
0.00330924
0.00333287
0.00335575
0.00337788
0.00339924
0.00341984
0.00343968
0.00345875
0.00347704
0.00349458
0.00351135
0.00352736
0.00354261
0.00355711
0.00357085
0.00358386
0.00359612
0.00360764
0.00361844
0.0036285
0.00363785
0.00364647
0.00365439
0.00366166
0.00366828
0.00367416
0.00367934
0.00368387
0.00368758
0.00369071
0.00369321
0.00369506
0.00369626
0.00369682
0.00369673
0.003696
0.00369465
0.00369267
0.00369007
0.00368686
0.00368305
0.00367865
0.00367367
0.0036681
0.00366198
0.0036553
0.00364807
0.00364031
0.00363201
0.00362319
0.00361387
0.00360407
0.00359383
0.00358317
0.00357211
0.0035607
0.00354894
0.00353688
0.00352452
0.00351188
0.00349897
0.00348581
0.00347243
0.00345883
0.00344506
0.00343112
0.00341702
0.00340276
0.00338827
0.00337348
0.00335815
0.00334181
0.0033228
0.00329727
1.49092e-08
1.13581e-06
1.37155e-05
4.58147e-05
8.48812e-05
0.000118933
0.000145236
0.000164638
0.000177047
0.000183971
0.000186868
0.000186916
0.000185071
0.000182103
0.0001785
0.00017446
0.000169937
0.000164953
0.000159374
0.000153025
0.000145909
0.000135352
0.000119642
0.000107229
9.94611e-05
9.74101e-05
9.33855e-05
9.66051e-05
0.000112247
0.000133738
0.000156422
0.000177818
0.000195479
0.000208076
0.000217103
0.000226093
0.000237839
0.00025565
0.00027897
0.000309537
0.00034669
0.000390632
0.000440497
0.000495854
0.000555579
0.000618465
0.000683362
0.000749462
0.000816386
0.000883688
0.000951084
0.00101817
0.00108456
0.00115073
0.0012162
0.00128086
0.00134456
0.00140729
0.00146899
0.00152967
0.0015893
0.00164791
0.00170551
0.00176213
0.00181781
0.00187261
0.00192657
0.00197973
0.00203214
0.00208384
0.00213487
0.00218526
0.00223504
0.00228421
0.00233278
0.0023807
0.00242796
0.00247456
0.00252047
0.00256567
0.00261015
0.00265388
0.00269686
0.00273909
0.00278057
0.0028213
0.00286134
0.00290061
0.00293912
0.00297687
0.00301386
0.0030501
0.00308559
0.00312033
0.00315433
0.00318759
0.00322013
0.00325194
0.00328305
0.00331344
0.00334311
0.00337208
0.00340032
0.00342783
0.0034546
0.00348063
0.0035059
0.00353041
0.00355415
0.00357711
0.00359929
0.00362067
0.00364126
0.00366105
0.00368004
0.00369824
0.00371565
0.00373225
0.00374807
0.00376311
0.00377737
0.00379084
0.00380355
0.0038155
0.00382669
0.00383713
0.00384683
0.00385579
0.00386404
0.00387164
0.00387854
0.00388473
0.00389022
0.00389502
0.00389906
0.00390251
0.00390532
0.00390748
0.003909
0.00390988
0.00391014
0.00390978
0.00390881
0.00390723
0.00390505
0.00390229
0.00389894
0.00389503
0.00389054
0.0038855
0.00387992
0.0038738
0.00386714
0.00385996
0.00385225
0.00384403
0.00383532
0.00382613
0.00381649
0.00380643
0.00379596
0.00378513
0.00377393
0.00376241
0.00375056
0.0037384
0.00372595
0.00371322
0.00370022
0.003687
0.00367356
0.00365993
0.00364612
0.00363214
0.00361797
0.00360355
0.00358873
0.00357305
0.00355525
0.00353283
3.37994e-08
2.63218e-06
2.54331e-05
6.83846e-05
0.000112103
0.000147025
0.000171262
0.000186079
0.000194166
0.000196628
0.000195402
0.000191905
0.000187128
0.000181705
0.000175998
0.000170052
0.000163761
0.000157176
0.000150042
0.000142433
0.000133854
0.000124696
0.00011556
0.000108421
0.000106282
0.000111385
0.00012328
0.000140208
0.000159201
0.000178848
0.000197329
0.000212743
0.00022474
0.000236856
0.000249875
0.000266674
0.000287677
0.000315119
0.000348744
0.000388832
0.000434767
0.000486195
0.000542351
0.000602472
0.000665499
0.000730437
0.000796534
0.000863301
0.000930414
0.000997589
0.00106428
0.00113065
0.00119685
0.0012623
0.00132699
0.00139086
0.00145383
0.00151588
0.00157698
0.00163713
0.00169633
0.00175457
0.00181188
0.00186831
0.00192389
0.00197868
0.00203271
0.00208604
0.00213863
0.00219058
0.00224194
0.00229274
0.002343
0.00239274
0.002442
0.00249085
0.00253918
0.00258684
0.00263377
0.00267995
0.00272535
0.00276994
0.00281372
0.00285667
0.0028988
0.00294011
0.00298057
0.00302024
0.00305915
0.00309732
0.00313475
0.00317145
0.00320742
0.00324268
0.00327721
0.00331104
0.00334417
0.0033766
0.00340833
0.00343935
0.00346966
0.00349925
0.00352813
0.00355628
0.0035837
0.00361037
0.00363629
0.00366144
0.00368582
0.00370941
0.00373221
0.0037542
0.00377539
0.00379577
0.00381534
0.00383409
0.00385203
0.00386915
0.00388546
0.00390097
0.00391568
0.00392959
0.00394271
0.00395505
0.00396661
0.00397741
0.00398745
0.00399675
0.00400533
0.00401327
0.00402049
0.00402699
0.00403282
0.00403795
0.00404237
0.0040462
0.00404938
0.00405193
0.00405386
0.00405518
0.0040559
0.00405603
0.00405557
0.00405453
0.00405293
0.00405077
0.00404805
0.0040448
0.00404101
0.00403669
0.00403185
0.0040265
0.00402064
0.00401426
0.00400738
0.004
0.00399214
0.00398381
0.00397504
0.00396585
0.00395625
0.00394627
0.00393592
0.00392523
0.00391419
0.00390282
0.00389112
0.00387911
0.00386682
0.00385426
0.00384146
0.00382844
0.00381522
0.00380183
0.00378824
0.00377445
0.00376037
0.00374565
0.00372924
0.00371023
6.54654e-08
5.45641e-06
3.84086e-05
8.6915e-05
0.000132322
0.000167234
0.000189932
0.000201678
0.000205558
0.000204238
0.000199672
0.000193212
0.000185784
0.000177847
0.0001696
0.000161561
0.000153318
0.000145727
0.000138841
0.000132691
0.000127492
0.000124487
0.000124818
0.000129277
0.00013791
0.000150303
0.000165496
0.000182212
0.00019919
0.000214977
0.000228298
0.000242063
0.000257215
0.000274153
0.000294009
0.000318839
0.000349035
0.000385164
0.000426825
0.000473728
0.000525314
0.000581078
0.000640325
0.000702286
0.000766124
0.000831116
0.000896737
0.000962629
0.00102842
0.00109374
0.00115913
0.00122397
0.00128818
0.00135165
0.0014143
0.00147609
0.00153699
0.00159699
0.00165609
0.00171431
0.00177165
0.00182812
0.00188366
0.00193841
0.00199244
0.00204578
0.00209854
0.00215083
0.00220291
0.00225456
0.0023057
0.00235634
0.00240648
0.00245615
0.00250534
0.00255396
0.002602
0.00264944
0.0026962
0.00274227
0.00278763
0.00283222
0.00287603
0.00291903
0.00296124
0.00300265
0.00304331
0.00308322
0.00312239
0.00316084
0.00319856
0.00323557
0.00327187
0.00330747
0.00334238
0.0033766
0.00341013
0.00344298
0.00347514
0.00350662
0.0035374
0.00356749
0.00359688
0.00362557
0.00365353
0.00368077
0.00370726
0.00373301
0.003758
0.00378221
0.00380563
0.00382825
0.00385006
0.00387105
0.00389123
0.00391059
0.00392911
0.00394682
0.0039637
0.00397976
0.003995
0.00400943
0.00402305
0.00403587
0.00404791
0.00405916
0.00406966
0.00407939
0.00408842
0.00409676
0.00410439
0.00411132
0.00411758
0.00412315
0.00412807
0.00413237
0.00413603
0.00413908
0.00414154
0.00414342
0.00414472
0.00414545
0.00414564
0.00414527
0.00414437
0.00414295
0.00414101
0.00413855
0.0041356
0.00413215
0.00412821
0.00412379
0.00411887
0.00411347
0.00410757
0.0041012
0.00409436
0.00408706
0.00407933
0.00407119
0.00406264
0.00405371
0.00404441
0.00403474
0.00402471
0.00401433
0.0040036
0.00399253
0.00398115
0.00396947
0.00395753
0.00394533
0.00393292
0.0039203
0.00390749
0.00389449
0.00388126
0.00386757
0.00385248
0.00383649
1.06396e-07
9.66283e-06
5.39983e-05
0.000110284
0.000156822
0.000188683
0.000206814
0.000214428
0.000214746
0.000210369
0.000203206
0.000194555
0.000185113
0.000176171
0.000167382
0.000159735
0.000152927
0.000147708
0.000144408
0.000143088
0.000144201
0.000147947
0.000154541
0.000163854
0.000175482
0.000188875
0.000203414
0.000217911
0.00023137
0.000245371
0.000261511
0.000279223
0.000298592
0.000321715
0.000349146
0.000381613