/*--------------------------------*- C++ -*----------------------------------*\
  =========                 |
  \\      /  F ield         | OpenFOAM: The Open Source CFD Toolbox
   \\    /   O peration     | Website:  https://openfoam.org
    \\  /    A nd           | Version:  13
     \\/     M anipulation  |
\*---------------------------------------------------------------------------*/
FoamFile
{
    format      ascii;
    class       volScalarField;
    location    "1000";
    object      omega;
}
// * * * * * * * * * * * * * * * * * * * * * * * * * * * * * * * * * * * * * //

dimensions      [0 0 -1 0 0 0 0];

internalField   nonuniform List<scalar> 
12225
(
31477.7
31477.7
50566.5
52471.9
47031.9
38118.2
31477.7
38306.6
31477.7
31477.7
40067.3
51738.5
45936.6
49597.7
48996.7
43237.1
31477.7
31477.7
779359
349301
240194
177131
87799.5
61166.5
44301.3
31914.4
22747.2
14410.4
2298.48
9927.02
19783.1
26359.5
27562.3
26498.5
22013.5
22444.9
182226
102257
80762.1
78786.5
67888.3
53978.2
32453.3
15819.5
18783.6
29217.4
16874.5
14950
20283.2
20105.7
18456.7
15714.4
15443.9
14430.2
49262.9
32740.6
33076.8
28620.5
14415.6
18706.3
18733.1
12250.3
13113.2
18580.6
13244.9
12520.8
11683.4
11095.4
11318.9
9606.39
8089.93
6998.94
3464.03
5014.2
6645.65
11682
14597.5
9827.84
8955.68
9950.36
8081.64
7570.24
7904.04
7840.52
7346.54
6637.98
5999.53
5478.62
4914.72
4504.79
0.38307
1947.23
1953.84
4061.4
3349.22
4089.86
4700.59
4703.87
4423.79
3996.96
3647.24
3486.03
3422.34
3346.1
3278.41
3262.6
3097.44
2967.36
124.939
733.952
589.568
835.616
1628.89
2313.68
2152.56
2312.84
2350.72
2266.45
2203.28
2159.57
2120.93
2092.94
2059.38
2038.48
1941.99
1894.19
381.42
535.212
520.562
578.015
748.995
920.621
1071.16
1166.83
1193.92
1208.91
1224.28
1235.52
1237.88
1238.53
1236.29
1224.72
1188.42
1186.17
428.565
446.833
488.387
507.713
539.608
586.236
638.592
680.499
714.332
737.014
756.337
768.798
782.231
791.214
795.542
805.203
795.277
794.288
436.585
435.625
443.71
451.226
466.425
481.836
495.526
511.106
525.498
539.918
552.073
563.464
571.164
579.352
583.774
590.868
593.397
595.079
439.315
435.213
435.062
435.294
438.453
442.375
446.301
450.679
455.794
461.605
467.152
472.565
476.773
480.825
483.98
486.229
488.137
491.106
439.215
436.424
434.459
432.755
432.349
431.433
431.86
432.432
433.336
434.937
436.691
438.473
440.221
441.433
442.839
443.399
445.097
445.423
439.07
436.729
434.577
432.585
430.89
429.282
428.013
426.927
426.08
425.53
425.14
424.894
424.606
424.341
423.884
423.595
422.814
422.704
439.012
436.778
434.652
432.646
430.758
428.951
427.267
425.723
424.272
422.992
421.778
420.705
419.632
418.66
417.639
416.726
415.715
414.87
439.002
436.777
434.659
432.656
430.748
428.94
427.208
425.583
424.023
422.57
421.174
419.87
418.613
417.428
416.281
415.19
414.134
413.13
439
436.774
434.657
432.65
430.741
428.929
427.203
425.563
424.001
422.515
421.1
419.752
418.469
417.241
416.073
414.953
413.887
412.863
439.001
436.772
434.655
432.645
430.736
428.921
427.194
425.552
423.987
422.499
421.078
419.727
418.435
417.205
416.029
414.909
413.835
412.814
438.999
436.768
434.65
432.638
430.727
428.91
427.181
425.537
423.97
422.479
421.057
419.703
418.409
417.178
415.999
414.877
413.803
412.78
439
436.771
434.654
432.642
430.732
428.915
427.186
425.542
423.975
422.484
421.062
419.708
418.414
417.183
416.005
414.882
413.808
412.785
439
436.773
434.655
432.647
430.739
428.925
427.198
425.555
423.993
422.508
421.097
419.755
418.477
417.257
416.093
414.977
413.914
412.89
438.992
436.777
434.623
432.638
430.79
428.988
427.315
425.67
424.211
422.768
421.519
420.305
419.211
418.145
417.135
416.121
415.185
414.203
438.908
436.763
434.108
432.628
431.267
429.869
428.734
427.311
426.945
425.09
424.891
424.71
425.289
425.924
425.512
425.897
425.864
426.04
438.19
436.436
436.152
436.085
436.836
438.455
440.176
441.689
444.354
447.803
452.962
457.925
464.47
469.786
475.433
480.02
484.717
487.97
442.153
432.129
443.696
448.917
459.236
473.731
489.315
507.19
525.892
546.841
566.869
587.108
607.96
625.873
642.761
658.652
673.122
683.824
437.353
436.984
502.216
524.696
565.498
634.469
700.581
770.695
841.049
904.534
905.029
922.285
940.714
984.139
964.036
978.817
1009.16
1012.16
379.631
643.653
787.374
913.68
1225.23
1710.52
1502.27
1596.11
1885.66
1820.35
1968.9
1995.72
2006.47
1994.71
1996.8
1937.82
1922.98
1905.7
1279.66
1797.19
2490.3
2314.77
2242.39
2388.27
2739.23
4165.42
3397.14
4104.45
4374.28
4389.64
4251.84
4105.82
3940.9
3801.81
3666.54
3555.55
2514.72
6913.86
7782.76
8478.08
6647.75
6557.9
6330.31
7635.32
6344.93
7155.66
7424.75
7330.2
7157.38
6931.03
6726.51
6536.32
6386.86
6257.21
1819.55
3145.22
6076.43
7929.73
8215.82
8876.74
9443.22
9868.35
10184.3
10398.1
10609
11344.1
11092.3
11470.4
11679.1
11643.2
11640.9
11600.8
18117.5
23072.8
25484.9
26559.8
26824.8
26750.1
26528.9
26123.8
25682.4
25243.1
24825.2
24435.4
24084.8
23775
23499.2
23262.4
23049.8
22871.9
11463.2
2514.24
2516.41
2518.61
2520.83
2523.07
2525.32
2527.6
2529.9
2532.22
2534.57
2536.93
2539.31
2541.72
2544.15
2546.6
2549.08
2551.57
2554.09
2556.64
2559.2
2561.79
2564.41
2567.05
2569.71
2572.4
2575.12
2577.86
2580.62
2583.41
2586.23
2589.08
2591.95
2594.85
2597.77
2600.73
2603.71
2606.72
2609.76
2612.82
2615.92
2619.05
2622.2
2625.39
2628.61
2631.86
2635.14
2638.45
2641.79
2645.17
2648.58
2652.02
2655.5
2659.01
2662.55
3150.8
3161.18
3161.58
2677.08
3335.87
3159.2
2688.35
2692.19
3283.65
3370.77
3457.27
3547.7
3623.71
3705.5
3777.93
3852.41
3921.81
3991.03
4057.52
4122.82
4186.52
4248.7
4309.77
4369.32
4427.97
4485.18
4541.54
4596.58
4650.78
4703.75
4755.83
4806.76
4856.73
4905.6
4953.47
5000.23
5045.91
5090.39
5133.71
5175.77
5216.57
5256.04
5294.21
5331.1
5366.95
5402.11
5436.45
5469.8
5502.27
5533.92
5564.65
5594.55
5623.49
5651.6
5678.72
5705.01
5730.29
5754.76
5778.21
5800.83
5822.44
5843.22
5862.99
5881.91
5899.83
5916.85
5932.89
5948
5962.14
5975.31
5987.5
5998.67
6008.85
6017.89
6025.85
6032.89
6039.96
6046.35
6050.71
6054.81
6057.91
6060.33
6062.27
6062.33
6061.14
6059.16
6056.2
6052.4
6047.71
6042.14
6035.77
6028.58
6020.75
6011.88
6002.67
5992.2
5981.6
5970.44
5957.98
5945.81
5932.32
5918.97
5904.89
5890.65
5876.02
5861.29
5846.45
5831.65
5816.9
5802.29
5787.82
5773.55
5759.5
5745.76
5732.33
5719.28
5706.58
5694.2
5681.97
5669.48
5656.06
5640.62
5620.7
5591.28
5475.17
11463.2
1985.94
994.101
808.337
697.195
615.934
618.886
617.219
607.575
588.197
565.475
542.479
521.374
503.888
491.441
482.63
482.551
481.517
511.917
547.534
620.257
713.541
819.94
929.595
1034.8
1120.13
1184.38
1192.33
1169.12
1104.13
982.755
836.804
671.481
575.511
514.163
465.563
444.165
448.94
461.674
489.653
524.766
556.604
610.159
721.716
860.767
1061.75
1347.91
1628.09
1827.9
1962.55
2035.16
2056.48
2054.56
2015.92
1985.58
1967.13
1893.55
1851.72
1774.8
1783.37
1697.89
1663.44
1650.12
1682.13
1662.28
1661.76
1659.08
1658.77
1660.27
1663.54
1667.88
1672.89
1678.72
1684.9
1691.57
1698.45
1705.57
1712.84
1720.21
1727.64
1735.1
1742.57
1750.01
1757.41
1764.74
1771.99
1779.13
1786.14
1793.04
1799.78
1806.42
1812.85
1819.13
1825.23
1831.2
1837.09
1842.99
1849.04
1855.51
1862.75
1871.28
1879.95
1888.26
1896.51
1904.5
1912.33
1919.94
1927.37
1934.58
1941.59
1948.4
1955
1961.4
1967.59
1973.56
1979.33
1984.88
1990.21
1995.32
2000.2
2004.85
2009.27
2013.47
2017.44
2021.18
2024.69
2027.96
2031.01
2033.83
2036.44
2038.91
2041.26
2043.38
2045.21
2046.93
2048.4
2049.66
2050.41
2050.24
2049.76
2049.05
2048.13
2046.99
2045.65
2044.1
2042.39
2040.54
2038.05
2036.13
2033.95
2030.35
2028.58
2024.61
2022.57
2018.31
2015.75
2012.06
2008.72
2005.08
2001.5
1997.8
1994.13
1990.43
1986.74
1983.06
1979.41
1975.8
1972.23
1968.73
1965.3
1961.96
1958.73
1955.61
1952.61
1949.84
1947.33
1945.17
1943.88
1942.47
1951.51
11463.2
1980.11
786.098
618.279
655.503
670.833
643.798
593.806
536.495
481.948
432.917
391.614
358.719
332.573
312.171
296.358
284.828
276.156
272.967
273.728
283.464
297.025
324.599
363.444
414.567
472.994
537.134
592.596
635.51
649.511
639.352
607.032
548.131
479.911
412.532
371.658
374.331
391.036
418.587
460.636
537.121
648.237
802.403
990.846
1157.34
1300.78
1428.02
1507.37
1541.61
1542.72
1500.48
1447.55
1389.46
1333.47
1285.4
1244.07
1204.36
1177.42
1151.28
1138.07
1120.2
1108.79
1103.03
1101.06
1097.93
1096.06
1096.09
1096.89
1098.73
1101.06
1103.85
1106.96
1110.36
1113.97
1117.75
1121.66
1125.67
1129.75
1133.9
1138.08
1142.29
1146.52
1150.74
1154.96
1159.17
1163.34
1167.49
1171.6
1175.67
1179.72
1183.73
1187.69
1191.63
1195.55
1199.48
1203.45
1207.5
1211.67
1216.01
1220.54
1225.17
1229.69
1234.09
1238.41
1242.61
1246.71
1250.69
1254.55
1258.3
1261.93
1265.44
1268.83
1272.1
1275.24
1278.26
1281.15
1283.9
1286.52
1289
1291.35
1293.55
1295.61
1297.54
1299.32
1300.97
1302.47
1303.83
1305.06
1306.15
1307.11
1307.95
1308.67
1309.25
1309.68
1309.99
1310.12
1310.11
1309.85
1309.32
1308.65
1307.86
1306.95
1305.91
1304.76
1303.49
1302.1
1300.64
1298.9
1297.34
1295.63
1293.44
1291.8
1289.41
1287.63
1285.13
1283.08
1280.69
1278.38
1275.96
1273.54
1271.07
1268.59
1266.09
1263.58
1261.07
1258.56
1256.05
1253.56
1251.1
1248.66
1246.27
1243.93
1241.67
1239.53
1237.59
1235.95
1234.77
1234.69
1236.05
1246.32
11463.2
2016.69
966.876
942.926
883.809
769.187
656.832
553.924
470.43
407.185
359.525
321.857
292.118
269.078
251.377
237.823
227.586
220.001
214.671
212.089
212.482
214.308
220.788
231.791
250.103
275.369
308.126
343.911
379.673
407.203
426.846
425.605
413.511
386.885
393.334
444.599
532.408
587.302
636.66
703.654
804.693
936.596
1053.16
1132.58
1200.61
1252.54
1276.13
1243.21
1197.89
1154.94
1101.82
1057.67
1017.09
983.782
956.132
933.819
915.572
902.782
892.238
885.489
880.781
875.934
874.595
873.491
873.501
874.201
875.627
877.477
879.705
882.199
884.92
887.821
890.872
894.043
897.313
900.664
904.08
907.548
911.059
914.602
918.169
921.753
925.346
928.942
932.537
936.124
939.7
943.262
946.813
950.351
953.88
957.393
960.895
964.394
967.901
971.424
974.97
978.544
982.142
985.744
989.3
992.767
996.155
999.46
1002.68
1005.8
1008.84
1011.78
1014.62
1017.37
1020.01
1022.56
1025
1027.34
1029.57
1031.69
1033.69
1035.59
1037.36
1039.02
1040.56
1041.98
1043.29
1044.48
1045.55
1046.5
1047.33
1048.05
1048.65
1049.13
1049.5
1049.76
1049.9
1049.91
1049.81
1049.57
1049.19
1048.66
1047.98
1047.18
1046.29
1045.29
1044.18
1042.97
1041.67
1040.27
1038.78
1037.16
1035.53
1033.81
1031.89
1030.09
1028.02
1026.09
1023.93
1021.84
1019.63
1017.41
1015.14
1012.84
1010.5
1008.14
1005.76
1003.37
1000.96
998.553
996.141
993.734
991.335
988.954
986.599
984.283
982.033
979.887
977.909
976.197
974.896
974.531
975.544
981.804
11463.2
2235.89
1416.19
1177.9
942.098
737.505
573.339
459.457
381.554
326.918
287.695
259.599
239.371
224.098
212.073
202.481
194.984
189.357
185.384
182.913
182.457
183.046
185.91
190.596
199.183
212.065
230.434
253.246
278.146
301.817
319.488
331.486
364.622
421.87
530.706
611.558
672.267
736.186
807.354
878.467
944.244
1001.04
1049.12
1081.68
1092.33
1064.86
1016.65
980.608
938.374
902.759
868.956
842.41
819.584
801.498
786.951
775.716
767.203
761.41
757.221
754.746
753.871
752.887
753.311
754.513
756.149
758.164
760.526
763.133
765.94
768.908
772.01
775.224
778.535
781.927
785.389
788.909
792.48
796.091
799.737
803.41
807.102
810.809
814.524
818.242
821.959
825.67
829.371
833.06
836.734
840.401
844.049
847.681
851.293
854.89
858.47
862.035
865.581
869.101
872.583
876.014
879.377
882.66
885.865
888.988
892.026
894.975
897.833
900.598
903.268
905.839
908.313
910.684
912.953
915.116
917.173
919.119
920.953
922.673
924.278
925.766
927.139
928.397
929.538
930.563
931.471
932.262
932.935
933.491
933.929
934.251
934.455
934.531
934.509
934.357
934.083
933.679
933.148
932.487
931.7
930.804
929.803
928.696
927.484
926.169
924.755
923.246
921.648
919.942
918.174
916.325
914.353
912.361
910.245
908.119
905.885
903.63
901.304
898.939
896.525
894.076
891.591
889.079
886.54
883.983
881.411
878.83
876.244
873.656
871.073
868.501
865.952
863.446
860.999
858.643
856.431
854.444
852.802
851.876
852.111
855.229
11463.2
2822.5
1725.55
1221.1
855.235
606.327
457.279
364.17
305.115
266.8
240.575
221.689
207.474
196.516
187.846
180.86
175.309
171.076
168.072
166.312
166.003
166.664
168.799
172.826
178.973
187.781
200.647
218.142
239.959
267.583
308.896
368.098
464.046
572.328
654.079
716.161
773.994
824.513
864.728
899.878
933.661
954.26
958.731
932.065
899.539
867.455
832.667
803.697
775.593
752.878
733.186
717.625
704.867
694.979
687.432
681.988
678.298
676.403
675.66
675.525
676.519
677.861
679.888
682.331
685.094
688.1
691.313
694.683
698.184
701.794
705.498
709.284
713.142
717.065
721.043
725.071
729.14
733.244
737.375
741.527
745.694
749.868
754.044
758.217
762.381
766.534
770.669
774.782
778.875
782.942
786.985
790.996
794.972
798.914
802.818
806.681
810.499
814.262
817.958
821.586
825.135
828.6
831.981
835.272
838.472
841.576
844.581
847.486
850.287
852.981
855.567
858.041
860.404
862.654
864.787
866.801
868.695
870.466
872.115
873.64
875.041
876.319
877.473
878.503
879.409
880.189
880.844
881.374
881.778
882.056
882.192
882.216
882.115
881.883
881.519
881.023
880.396
879.638
878.755
877.754
876.637
875.405
874.06
872.602
871.035
869.364
867.593
865.716
863.75
861.694
859.535
857.307
854.986
852.608
850.149
847.635
845.056
842.425
839.743
837.018
834.254
831.456
828.629
825.779
822.912
820.032
817.146
814.255
811.367
808.487
805.628
802.804
800.034
797.345
794.781
792.406
790.314
788.761
788.063
789.06
11463.2
3384.11
1795.5
1073.1
678.795
474.356
369.041
310.117
272.335
245.66
225.223
209.393
196.953
186.876
178.583
171.77
166.33
162.181
159.383
157.926
157.945
159.129
162.077
167.101
174.751
186.107
201.804
223.984
257.749
310.877
394.707
502.746
595.157
662.567
718.747
763.111
796.644
823.762
847.582
857.409
857.537
835.102
811.303
785.08
759.016
734.069
710.617
690.786
673.342
659.214
647.544
638.388
631.284
626.094
622.539
620.635
619.952
620.067
621.19
622.944
625.347
628.147
631.361
634.872
638.619
642.549
646.626
650.824
655.122
659.508
663.97
668.502
673.095
677.746
682.446
687.189
691.969
696.777
701.605
706.447
711.295
716.141
720.979
725.802
730.607
735.386
740.136
744.853
749.53
754.17
758.765
763.312
767.808
772.248
776.631
780.952
785.208
789.394
793.507
797.537
801.475
805.32
809.066
812.712
816.252
819.685
823.006
826.213
829.3
832.268
835.111
837.829
840.416
842.87
845.191
847.38
849.434
851.354
853.137
854.785
856.296
857.672
858.911
860.014
860.98
861.809
862.501
863.055
863.473
863.746
863.863
863.861
863.72
863.436
863.009
862.439
861.73
860.882
859.898
858.784
857.54
856.17
854.673
853.051
851.306
849.433
847.438
845.328
843.11
840.788
838.361
835.841
833.228
830.536
827.762
824.916
822.001
819.024
815.99
812.906
809.777
806.611
803.411
800.186
796.941
793.683
790.415
787.143
783.872
780.609
777.366
774.155
770.995
767.909
764.933
762.118
759.532
757.357
755.743
755.136
11463.2
3585.25
1623.17
856.612
536.158
391.642
317.783
274.413
246.686
227.44
213.278
201.729
191.635
182.755
175.089
168.647
163.55
159.977
158.002
157.618
158.596
161.144
165.86
173.453
185.279
204.11
233.283
278.504
351.008
442.175
527.43
593.523
648.686
694.301
729.699
757.585
776.484
783.643
777.927
760.657
742.369
721.169
701
681.03
662.087
644.573
629.07
616.02
605.078
596.301
589.38
584.188
580.528
578.431
577.624
577.614
578.677
580.517
583.071
586.176
589.764
593.717
597.985
602.503
607.219
612.092
617.096
622.208
627.413
632.699
638.058
643.481
648.964
654.499
660.08
665.7
671.352
677.025
682.711
688.4
694.083
699.753
705.4
711.018
716.601
722.143
727.641
733.086
738.475
743.803
749.069
754.265
759.389
764.436
769.404
774.289
779.089
783.804
788.425
792.942
797.351
801.646
805.825
809.885
813.821
817.631
821.312
824.86
828.271
831.544
834.674
837.661
840.503
843.198
845.746
848.143
850.39
852.486
854.431
856.224
857.865
859.356
860.694
861.881
862.916
863.799
864.529
865.107
865.532
865.791
865.886
865.839
865.64
865.282
864.766
864.095
863.268
862.289
861.16
859.884
858.463
856.899
855.193
853.347
851.364
849.247
847
844.625
842.129
839.515
836.786
833.951
831.014
827.983
824.864
821.662
818.383
815.034
811.622
808.154
804.638
801.08
797.485
793.861
790.216
786.555
782.885
779.209
775.534
771.869
768.223
764.61
761.044
757.549
754.152
750.895
747.827
745.046
742.628
740.686
11463.2
3494.97
1350.85
692.385
456.953
355.139
300.345
265.329
242.513
225.593
212.379
201.495
192.256
184.25
177.414
171.838
167.802
165.38
164.782
166.254
169.924
176.458
187.387
204.313
230.344
272.684
332.412
403.558
471.112
530.782
581.811
624.596
659.909
689.768
710.731
718.472
714.926
701.104
686.091
669.136
652.999
637.1
622.154
607.795
594.453
582.492
572.245
563.775
556.915
551.598
547.706
545.2
544.06
543.843
544.622
546.289
548.77
551.935
555.698
559.958
564.639
569.666
574.982
580.532
586.274
592.175
598.206
604.351
610.596
616.925
623.329
629.798
636.322
642.893
649.503
656.148
662.82
669.501
676.184
682.855
689.505
696.124
702.703
709.234
715.709
722.117
728.442
734.697
740.876
746.98
752.998
758.93
764.768
770.51
776.15
781.685
787.111
792.421
797.61
802.674
807.608
812.409
817.073
821.596
825.976
830.208
834.29
838.218
841.99
845.601
849.05
852.334
855.453
858.405
861.189
863.803
866.249
868.525
870.632
872.569
874.338
875.937
877.368
878.63
879.723
880.647
881.401
881.985
882.398
882.623
882.676
882.562
882.278
881.819
881.185
880.379
879.401
878.253
876.938
875.458
873.816
872.012
870.05
867.931
865.658
863.235
860.666
857.955
855.106
852.125
849.017
845.787
842.444
838.995
835.446
831.804
828.076
824.271
820.398
816.464
812.476
808.443
804.371
800.267
796.139
791.996
787.842
783.683
779.527
775.383
771.261
767.171
763.13
759.158
755.277
751.519
747.921
744.577
741.489
738.499
11463.2
3110.89
1092.83
582.559
407.382
328.171
285.631
259.854
241.655
228.387
217.802
208.781
200.939
194.214
188.813
185.103
183.58
184.409
187.95
194.906
205.907
222.76
247.936
283.435
329.139
379.671
431.211
480.157
523.814
562.28
594.737
622.892
646.242
656.974
658.065
649.759
638.583
624.887
611.713
599
587.179
575.869
565.14
555.004
545.787
537.744
531.019
525.608
521.472
518.553
516.959
516.427
516.77
518.109
520.33
523.342
527.071
531.431
536.343
541.733
547.533
553.682
560.129
566.823
573.72
580.787
587.997
595.332
602.788
610.34
617.967
625.656
633.396
641.167
648.949
656.703
664.439
672.179
679.917
687.637
695.326
702.972
710.566
718.099
725.563
732.95
740.261
747.475
754.582
761.574
768.45
775.202
781.828
788.323
794.684
800.907
806.987
812.92
818.706
824.34
829.82
835.142
840.301
845.295
850.119
854.772
859.249
863.549
867.667
871.6
875.347
878.906
882.275
885.454
888.443
891.241
893.849
896.267
898.498
900.54
902.394
904.061
905.541
906.834
907.941
908.86
909.592
910.137
910.489
910.637
910.596
910.37
909.953
909.344
908.543
907.55
906.368
904.998
903.443
901.705
899.786
897.687
895.412
892.962
890.342
887.554
884.604
881.497
878.236
874.829
871.28
867.596
863.786
859.857
855.818
851.676
847.44
843.121
838.727
834.269
829.754
825.19
820.584
815.944
811.28
806.599
801.907
797.212
792.523
787.85
783.201
778.588
774.026
769.531
765.123
760.827
756.671
752.724
748.967
745.003
11463.2
2651.07
940.331
541.986
394.552
324.272
286.369
264.212
249.696
239.035
230.545
223.513
217.849
213.884
212.238
212.975
217.351
225.016
235.481
249.972
270.301
297.049
329.563
366.054
404.066
441.331
476.6
508.984
537.316
562.581
585.904
599.801
603.857
601.408
594.975
585.322
575.093
564.942
555.574
546.796
538.508
530.542
522.969
515.935
509.685
504.386
500.147
496.976
494.937
494.06
494.001
494.927
496.785
499.518
503.069
507.374
512.363
517.964
524.111
530.737
537.784
545.205
552.972
561.007
569.269
577.721
586.323
595.03
603.758
612.564
621.459
630.431
639.465
648.538
657.629
666.735
675.836
684.913
693.962
702.953
711.873
720.712
729.463
738.117
746.666
755.098
763.4
771.562
779.577
787.444
795.156
802.711
810.105
817.335
824.399
831.29
838.008
844.549
850.911
857.092
863.09
868.899
874.515
879.936
885.157
890.178
894.995
899.606
904.007
908.197
912.173
915.934
919.48
922.81
925.924
928.826
931.514
933.993
936.264
938.327
940.183
941.835
943.281
944.523
945.561
946.395
947.025
947.451
947.663
947.662
947.452
947.037
946.413
945.58
944.538
943.287
941.83
940.168
938.303
936.236
933.971
931.509
928.853
926.005
922.969
919.751
916.354
912.784
909.047
905.149
901.096
896.896
892.556
888.086
883.496
878.794
873.992
869.102
864.133
859.096
854
848.851
843.659
838.431
833.178
827.907
822.627
817.346
812.076
806.825
801.604
796.424
791.296
786.237
781.263
776.395
771.652
767.09
762.685
757.834
11463.2
2206.55
810.364
492.611
376.277
321.138
291.862
274.407
262.999
254.898
248.929
244.728
242.728
242.44
245.421
251.789
261.445
273.814
289.429
308.781
331.611
357.174
384.452
412.244
439.462
465.311
488.84
510.64
531.238
546.412
553.002
554.232
552.597
547.479
540.801
533.482
526.39
519.716
513.479
507.538
501.814
496.302
491.124
486.449
482.478
479.337
477.115
475.99
475.732
476.369
477.955
480.445
483.807
487.999
492.991
498.764
505.218
512.286
519.908
528.02
536.549
545.396
554.464
563.828
573.473
583.366
593.475
603.772
614.261
624.88
635.58
646.332
657.124
667.909
678.644
689.306
699.87
710.315
720.626
730.816
740.888
750.842
760.675
770.383
779.957
789.383
798.643
807.724
816.617
825.314
833.816
842.12
850.226
858.129
865.828
873.318
880.598
887.665
894.519
901.157
907.578
913.775
919.747
925.487
930.996
936.269
941.307
946.108
950.669
954.989
959.067
962.901
966.493
969.842
972.946
975.814
978.449
980.853
983.029
984.979
986.704
988.208
989.49
990.551
991.394
992.02
992.425
992.612
992.573
992.309
991.82
991.109
990.175
989.017
987.635
986.031
984.204
982.158
979.893
977.411
974.714
971.805
968.686
965.36
961.832
958.106
954.188
950.083
945.798
941.34
936.717
931.935
927.003
921.929
916.726
911.406
905.982
900.466
894.868
889.2
883.469
877.685
871.856
865.991
860.099
854.189
848.273
842.36
836.464
830.593
824.758
818.968
813.235
807.573
801.996
796.521
791.164
785.972
780.932
775.253
11463.2
2007.79
785.159
490.357
379.961
329.746
303.746
288.97
279.911
274.156
270.969
269.779
270.478
273.937
280.302
289.417
301.097
315.126
331.34
349.376
368.909
389.273
409.798
429.678
448.347
466.306
483.816
498.315
506.646
510.142
511.092
510.221
507.291
503.193
498.658
494.119
489.764
485.629
481.656
477.815
474.121
470.662
467.583
465.032
463.18
462.245
462.07
462.799
464.587
467.229
470.734
475.077
480.243
486.182
492.82
499.99
507.805
516.277
525.369
535.024
545.189
555.827
566.934
578.417
590.235
602.353
614.725
627.306
640.076
652.951
665.831
678.645
691.323
703.832
716.153
728.259
740.135
751.776
763.193
774.414
785.466
796.358
807.102
817.704
828.155
838.432
848.509
858.365
867.98
877.35
886.474
895.359
904.005
912.41
920.57
928.483
936.145
943.557
950.719
957.628
964.284
970.681
976.816
982.683
988.282
993.611
998.671
1003.46
1007.98
1012.22
1016.2
1019.91
1023.35
1026.51
1029.41
1032.04
1034.42
1036.56
1038.44
1040.08
1041.48
1042.65
1043.58
1044.28
1044.75
1044.99
1045
1044.79
1044.33
1043.65
1042.73
1041.58
1040.2
1038.58
1036.73
1034.65
1032.33
1029.78
1027.01
1024
1020.77
1017.31
1013.63
1009.73
1005.62
1001.3
996.773
992.052
987.141
982.049
976.782
971.35
965.759
960.018
954.142
948.148
942.047
935.853
929.575
923.225
916.811
910.344
903.831
897.283
890.706
884.112
877.516
870.931
864.369
857.839
851.352
844.916
838.543
832.242
826.028
819.918
813.924
808.084
802.414
795.952
11463.2
1906.69
764.942
489.039
388.03
341.889
318.528
305.757
298.383
294.525
293.08
293.426
296.335
301.594
309.094
318.534
329.71
342.291
356.088
370.68
385.67
400.572
415.133
429.523
443.693
455.907
464.345
469.8
472.727
473.993
474.266
473.555
471.839
469.734
467.48
465.266
463.123
461.091
459.179
457.464
456.082
455.268
454.97
455.096
455.98
457.612
459.966
462.996
466.513
470.823
476.017
482.095
489.053
496.858
505.487
514.962
525.224
536.23
547.93
560.262
573.169
586.607
600.534
614.868
629.551
644.561
659.815
675.179
690.528
705.769
720.836
735.647
750.124
764.21
777.874
791.1
803.883
816.245
828.222
839.917
851.418
862.744
873.92
884.98
895.906
906.658
917.187
927.459
937.448
947.114
956.497
965.602
974.433
982.988
991.264
999.256
1006.96
1014.38
1021.52
1028.37
1034.94
1041.21
1047.19
1052.87
1058.24
1063.32
1068.09
1072.56
1076.73
1080.61
1084.19
1087.47
1090.47
1093.17
1095.6
1097.75
1099.63
1101.24
1102.58
1103.66
1104.47
1105.05
1105.38
1105.46
1105.3
1104.92
1104.3
1103.44
1102.35
1101.02
1099.47
1097.69
1095.68
1093.44
1090.95
1088.23
1085.27
1082.08
1078.65
1074.98
1071.09
1066.96
1062.6
1058.02
1053.22
1048.21
1042.98
1037.55
1031.93
1026.12
1020.14
1013.98
1007.67
1001.19
994.589
987.867
981.041
974.119
967.114
960.034
952.891
945.695
938.455
931.181
923.878
916.561
909.25
901.958
894.697
887.476
880.305
873.191
866.145
859.175
852.296
845.527
838.877
832.374
826.077
818.868
11463.2
1902.04
763.51
497.482
401.056
357.399
335.412
323.349
316.382
312.953
311.848
312.827
316.151
321.413
328.312
336.469
345.72
355.751
366.379
377.259
388.305
399.601
410.644
420.144
427.632
433.521
438.276
441.798
444.243
445.984
447.194
448.004
448.573
449.229
449.924
450.658
451.451
452.364
453.427
454.675
456.094
457.431
459.359
462.128
465.734
470.161
475.418
481.505
488.532
496.416
505.168
514.803
525.327
536.738
548.987
562.08
575.973
590.713
606.198
622.31
638.95
656.055
673.54
691.322
709.295
727.321
745.301
763.164
780.804
798.099
814.94
831.197
846.762
861.529
875.536
888.799
901.353
913.245
924.513
935.46
946.368
957.126
967.784
978.469
989.117
999.624
1009.91
1019.92
1029.63
1039.05
1048.16
1056.97
1065.48
1073.68
1081.57
1089.14
1096.39
1103.33
1109.96
1116.28
1122.29
1127.99
1133.37
1138.42
1143.15
1147.55
1151.63
1155.38
1158.81
1161.92
1164.72
1167.21
1169.38
1171.25
1172.82
1174.11
1175.12
1175.84
1176.28
1176.42
1176.3
1175.96
1175.35
1174.49
1173.39
1172.07
1170.51
1168.73
1166.72
1164.49
1162.04
1159.38
1156.49
1153.37
1150.01
1146.43
1142.61
1138.57
1134.29
1129.78
1125.04
1120.07
1114.88
1109.46
1103.83
1097.97
1091.92
1085.66
1079.2
1072.56
1065.75
1058.77
1051.64
1044.38
1037
1029.51
1021.91
1014.22
1006.44
998.59
990.676
982.71
974.704
966.669
958.605
950.538
942.486
934.464
926.478
918.54
910.659
902.842
895.101
887.438
879.875
872.43
865.112
857.937
851.014
843.095
11463.7
1901.08
768.032
509.997
416.638
373.462
351.701
339.389
331.565
327.592
326.192
326.78
329.313
333.415
338.788
345.069
352.17
359.819
368.027
376.417
384.565
392.201
399.274
405.973
412.192
417.863
423.075
427.866
432.277
436.464
440.408
444.158
447.582
450.613
453.595
456.843
460.375
464.319
468.702
473.629
479.192
485.619
493.078
501.785
511.332
521.623
532.661
544.401
556.884
570.022
583.818
598.264
613.477
629.517
646.225
663.495
681.296
699.502
718.111
737.115
756.462
776.073
795.874
815.777
835.679
855.472
875.05
894.315
913.154
931.461
949.104
965.964
981.874
996.645
1010.41
1023.29
1035.34
1046.55
1057.08
1067.05
1076.62
1085.84
1094.99
1104.55
1114.22
1123.75
1133.03
1141.99
1150.63
1158.99
1167.01
1174.71
1182.08
1189.1
1195.79
1202.14
1208.14
1213.81
1219.17
1224.21
1228.93
1233.35
1237.44
1241.21
1244.64
1247.73
1250.5
1252.94
1255.04
1256.82
1258.3
1259.45
1260.27
1260.77
1260.95
1260.82
1260.49
1259.84
1258.91
1257.7
1256.25
1254.56
1252.64
1250.48
1248.12
1245.54
1242.75
1239.76
1236.57
1233.17
1229.57
1225.77
1221.75
1217.52
1213.08
1208.42
1203.55
1198.46
1193.15
1187.63
1181.9
1175.94
1169.78
1163.4
1156.81
1150.02
1143.03
1135.85
1128.49
1120.94
1113.23
1105.36
1097.34
1089.22
1080.98
1072.63
1064.17
1055.62
1046.99
1038.28
1029.51
1020.7
1011.85
1002.98
994.116
985.273
976.456
967.675
958.937
950.253
941.631
933.082
924.616
916.237
907.971
899.835
891.836
883.977
876.42
867.823
11462.8
1938.82
775.19
522.005
431.227
387.404
364.758
351.436
342.63
337.898
336.045
335.932
337.546
340.684
345.204
350.778
357.19
364.115
371.5
379.054
386.923
394.637
402.198
409.529
416.664
423.584
430.356
437.039
443.687
450.473
457.422
464.61
472.113
480.339
489.233
499.016
509.721
521.517
534.405
548.468
563.691
580.096
597.442
615.3
633.708
652.499
671.57
690.734
709.899
728.909
747.742
766.396
785.026
803.412
821.785
840.097
858.463
876.874
895.424
914.132
932.953
951.831
970.745
989.629
1008.42
1027.02
1045.36
1063.31
1080.82
1097.75
1114.05
1129.59
1144.34
1158.11
1171
1183.11
1194.43
1204.99
1214.8
1223.9
1232.19
1240.09
1248
1256.08
1263.95
1271.47
1278.6
1285.33
1291.67
1297.65
1303.28
1308.57
1313.54
1318.18
1322.5
1326.51
1330.2
1333.6
1336.73
1339.57
1342.14
1344.45
1346.48
1348.21
1349.64
1350.76
1351.6
1352.13
1352.35
1352.25
1351.95
1351.32
1350.38
1349.15
1347.64
1345.89
1343.89
1341.63
1339.14
1336.41
1333.47
1330.32
1326.98
1323.45
1319.74
1315.85
1311.79
1307.56
1303.16
1298.59
1293.84
1288.91
1283.8
1278.5
1273.02
1267.34
1261.48
1255.42
1249.17
1242.73
1236.09
1229.26
1222.23
1215.01
1207.59
1199.99
1192.2
1184.23
1176.09
1167.78
1159.31
1150.69
1141.92
1133.02
1124
1114.86
1105.61
1096.27
1086.85
1077.35
1067.79
1058.19
1048.55
1038.89
1029.25
1019.64
1010.06
1000.51
991.005
981.559
972.182
962.886
953.684
944.607
935.661
926.856
918.195
909.675
901.499
892.29
11461.8
2034.34
796.098
530.768
443.215
399.271
375.123
361.11
352.113
347.515
345.827
346.003
348.022
351.68
356.777
363.184
371.003
379.433
388.345
397.803
408.037
418.734
429.643
440.553
451.717
463.11
474.841
486.984
499.658
513.075
527.334
542.859
559.838
578.608
599.1
621.524
645.901
672.329
700.847
731.293
763.236
796.225
829.611
862.665
894.924
926.056
955.944
984.222
1010.34
1034.06
1055.44
1074.49
1091.05
1105.82
1119.69
1132.44
1144.36
1155.8
1167.1
1178.87
1190.75
1202.69
1214.77
1227.06
1239.43
1251.86
1264.22
1276.45
1288.39
1300
1311.12
1321.74
1331.83
1341.68
1351.14
1360.09
1368.39
1375.91
1382.64
1388.88
1394.81
1400.92
1406.94
1412.24
1416.82
1420.76
1424.27
1427.39
1430.18
1432.65
1434.85
1436.78
1438.45
1439.86
1441.04
1441.99
1442.74
1443.29
1443.66
1443.81
1443.76
1443.57
1443.17
1442.53
1441.65
1440.55
1439.22
1437.66
1435.84
1433.81
1431.55
1429.04
1426.29
1423.32
1420.14
1416.76
1413.18
1409.41
1405.45
1401.32