/*--------------------------------*- C++ -*----------------------------------*\
  =========                 |
  \\      /  F ield         | OpenFOAM: The Open Source CFD Toolbox
   \\    /   O peration     | Website:  https://openfoam.org
    \\  /    A nd           | Version:  13
     \\/     M anipulation  |
\*---------------------------------------------------------------------------*/
FoamFile
{
    format      ascii;
    class       volScalarField;
    location    "1000";
    object      p;
}
// * * * * * * * * * * * * * * * * * * * * * * * * * * * * * * * * * * * * * //

dimensions      [0 2 -2 0 0 0 0];

internalField   nonuniform List<scalar> 
12225
(
-4.22495
-5.07866
-5.47679
-5.61566
-5.75855
-5.93029
-6.08374
-6.20148
-6.30078
-6.3929
-6.4787
-6.55671
-6.62848
-6.69786
-6.76345
-6.82408
-6.88542
-6.96353
-4.49543
-5.1152
-5.45006
-5.58802
-5.73204
-5.90455
-6.05668
-6.17238
-6.27359
-6.36527
-6.44793
-6.52829
-6.60337
-6.67065
-6.73495
-6.79839
-6.85649
-6.89635
-4.67159
-5.10732
-5.43061
-5.59748
-5.74752
-5.91317
-6.06
-6.17567
-6.27622
-6.36746
-6.44956
-6.52545
-6.59493
-6.65775
-6.7172
-6.77512
-6.8265
-6.86297
-4.80618
-5.1211
-5.43202
-5.61209
-5.75572
-5.90787
-6.04796
-6.16289
-6.26205
-6.3514
-6.43187
-6.50585
-6.57409
-6.63691
-6.69648
-6.75319
-6.80418
-6.84448
-4.9318
-5.16816
-5.44667
-5.62613
-5.7639
-5.90633
-6.04166
-6.15619
-6.25447
-6.34246
-6.42228
-6.49575
-6.56336
-6.62575
-6.6843
-6.73896
-6.78844
-6.82982
-5.05212
-5.2287
-5.46557
-5.63881
-5.77297
-5.90736
-6.03678
-6.14889
-6.24524
-6.33128
-6.40976
-6.48192
-6.54816
-6.6093
-6.66631
-6.7192
-6.76736
-6.80891
-5.16093
-5.29485
-5.49148
-5.65552
-5.78533
-5.91172
-6.03429
-6.14279
-6.23689
-6.32115
-6.3983
-6.46928
-6.53452
-6.59478
-6.65079
-6.70255
-6.74976
-6.79114
-5.25297
-5.35073
-5.52137
-5.67436
-5.79893
-5.91797
-6.03372
-6.13806
-6.22969
-6.31209
-6.38764
-6.45722
-6.52128
-6.5804
-6.63515
-6.68554
-6.73143
-6.77191
-5.33417
-5.40732
-5.55474
-5.69574
-5.81441
-5.92656
-6.03553
-6.13528
-6.22406
-6.30427
-6.3779
-6.44584
-6.50846
-6.56623
-6.61956
-6.6685
-6.713
-6.75238
-5.40756
-5.46607
-5.59019
-5.71816
-5.83012
-5.9356
-6.03802
-6.13305
-6.21877
-6.29662
-6.36826
-6.43443
-6.49547
-6.55173
-6.60354
-6.65099
-6.69408
-6.73233
-5.47485
-5.52226
-5.62564
-5.7403
-5.84494
-5.94393
-6.04014
-6.13052
-6.21312
-6.28861
-6.35824
-6.42259
-6.48198
-6.53669
-6.58699
-6.63297
-6.67474
-6.71188
-5.53107
-5.57046
-5.6579
-5.76061
-5.85815
-5.95126
-6.04201
-6.12816
-6.2078
-6.28107
-6.34877
-6.41139
-6.46919
-6.52247
-6.57138
-6.61609
-6.6567
-6.69293
-5.5819
-5.61502
-5.68922
-5.78075
-5.8712
-5.95861
-6.04414
-6.12612
-6.20272
-6.27365
-6.33935
-6.40019
-6.45641
-6.5082
-6.5558
-6.59926
-6.63884
-6.67417
-5.63378
-5.66141
-5.72339
-5.80349
-5.88604
-5.96717
-6.04702
-6.12429
-6.19732
-6.26544
-6.32879
-6.38755
-6.44192
-6.49208
-6.53818
-6.58038
-6.61878
-6.65334
-5.68481
-5.70758
-5.75894
-5.82806
-5.90225
-5.97671
-6.05058
-6.12277
-6.19172
-6.25665
-6.31726
-6.37373
-6.42606
-6.47447
-6.51899
-6.55985
-6.59714
-6.63084
-5.73191
-5.75074
-5.79338
-5.85267
-5.91867
-5.98639
-6.05433
-6.1213
-6.186
-6.24738
-6.30516
-6.35911
-6.40939
-6.4559
-6.49892
-6.53837
-6.57465
-6.60752
-5.77102
-5.78677
-5.82283
-5.8742
-5.933
-5.99459
-6.05709
-6.11924
-6.17979
-6.23778
-6.29265
-6.34422
-6.39238
-6.43718
-6.47864
-6.51693
-6.55212
-6.58438
-5.79576
-5.80961
-5.84153
-5.88768
-5.94143
-5.9985
-6.05687
-6.11528
-6.17253
-6.2277
-6.28017
-6.3297
-6.3761
-6.41941
-6.4596
-6.49683
-6.53116
-6.5628
-5.79624
-5.80962
-5.8406
-5.88552
-5.93783
-5.99333
-6.05009
-6.10694
-6.16271
-6.21653
-6.26778
-6.31622
-6.36166
-6.40412
-6.44357
-6.48019
-6.51402
-6.54532
-5.76346
-5.77875
-5.81369
-5.86325
-5.91937
-5.97775
-6.03666
-6.09535
-6.15246
-6.20735
-6.25926
-6.30822
-6.35389
-6.39652
-6.43595
-6.47253
-6.50623
-6.53743
-5.71538
-5.734
-5.77607
-5.83364
-5.89629
-5.95945
-6.02249
-6.08454
-6.14456
-6.20148
-6.2551
-6.30515
-6.35176
-6.39485
-6.43469
-6.47135
-6.50517
-6.53627
-5.65314
-5.67733
-5.73079
-5.79993
-5.87082
-5.94006
-6.00835
-6.07513
-6.13883
-6.19861
-6.25431
-6.30594
-6.35358
-6.39733
-6.4375
-6.4743
-6.50808
-6.53911
-5.57898
-5.61167
-5.68194
-5.76555
-5.84527
-5.92088
-5.99517
-6.06721
-6.13502
-6.19796
-6.25607
-6.30954
-6.35833
-6.40279
-6.44316
-6.47997
-6.51346
-6.54413
-5.49395
-5.53924
-5.63233
-5.73203
-5.82014
-5.90232
-5.98324
-6.0608
-6.1327
-6.19877
-6.25939
-6.31472
-6.36483
-6.41006
-6.45087
-6.48772
-6.52112
-6.55157
-5.39835
-5.46361
-5.58368
-5.69906
-5.79393
-5.88285
-5.97121
-6.05476
-6.13088
-6.20012
-6.26326
-6.32036
-6.37168
-6.41754
-6.45855
-6.49527
-6.52827
-6.55813
-5.28984
-5.38809
-5.54191
-5.67182
-5.77204
-5.86756
-5.96288
-6.05161
-6.13136
-6.20346
-6.26885
-6.32763
-6.38005
-6.42665
-6.46799
-6.50483
-6.53799
-6.56808
-5.16911
-5.31015
-5.50546
-5.64516
-5.75183
-5.85729
-5.96095
-6.05482
-6.13774
-6.21184
-6.27836
-6.33739
-6.38951
-6.43529
-6.47557
-6.51133
-6.5435
-6.57349
-5.03378
-5.27248
-5.49197
-5.62011
-5.72635
-5.84198
-5.95542
-6.0564
-6.14495
-6.22356
-6.29327
-6.35439
-6.40744
-6.4532
-6.49273
-6.52728
-6.55829
-6.58793
-4.84967
-5.26621
-5.51995
-5.62336
-5.71807
-5.83466
-5.95047
-6.05289
-6.14302
-6.2236
-6.29516
-6.35781
-6.41198
-6.45816
-6.49721
-6.53041
-6.55959
-6.58562
-4.57064
-5.18353
-5.50285
-5.61621
-5.7192
-5.84636
-5.97048
-6.0776
-6.17053
-6.25327
-6.32606
-6.38909
-6.44318
-6.48858
-6.52573
-6.55584
-6.58102
-6.60139
-7.45461
-7.45464
-7.45459
-7.45447
-7.45418
-7.45319
-7.45101
-7.44789
-7.44475
-7.44248
-7.44214
-7.44405
-7.44785
-7.45283
-7.45829
-7.46352
-7.46801
-7.47129
-7.47321
-7.47395
-7.47385
-7.4731
-7.47194
-7.47065
-7.4695
-7.46869
-7.46823
-7.46802
-7.46784
-7.46753
-7.46704
-7.4664
-7.46562
-7.46461
-7.46329
-7.46175
-7.46031
-7.4596
-7.46032
-7.46257
-7.46573
-7.46894
-7.47162
-7.47381
-7.47583
-7.47807
-7.4809
-7.4841
-7.48698
-7.48921
-7.49244
-7.49988
-7.51547
-7.53935
-7.57072
-7.60969
-7.65754
-7.71409
-7.77769
-7.84647
-7.9185
-7.99167
-8.06429
-8.13522
-8.20339
-8.26796
-8.32834
-8.38446
-8.43606
-8.48325
-8.52588
-8.56413
-8.59785
-8.62718
-8.65194
-8.67224
-8.68785
-8.69884
-8.70501
-8.70641
-8.7029
-8.69446
-8.68098
-8.66241
-8.63865
-8.60963
-8.57533
-8.53577
-8.49101
-8.44105
-8.38577
-8.32509
-8.25896
-8.18736
-8.11029
-8.02777
-7.93978
-7.84632
-7.74739
-7.64306
-7.53333
-7.41806
-7.29719
-7.1708
-7.03904
-6.90205
-6.75992
-6.61271
-6.46051
-6.30338
-6.14142
-5.97471
-5.80338
-5.62751
-5.44722
-5.2626
-5.07371
-4.8806
-4.68334
-4.48204
-4.27681
-4.06779
-3.85503
-3.63863
-3.41859
-3.19502
-2.96795
-2.7375
-2.50373
-2.26677
-2.0267
-1.78368
-1.53781
-1.28928
-1.0382
-0.784835
-0.529408
-0.272201
-0.0131857
0.247538
0.509625
0.772718
1.03657
1.30092
1.56553
1.83013
2.09447
2.35827
2.62127
2.88318
3.14376
3.40275
3.65988
3.91492
4.16763
4.41777
4.66513
4.90953
5.15079
5.38875
5.62329
5.85431
6.08169
6.30537
6.52526
6.7413
6.95343
7.1616
7.36576
7.56587
7.7619
7.95382
8.14159
8.32518
8.50458
8.67978
8.85099
9.01822
9.18453
9.34089
-7.45567
-7.45577
-7.45605
-7.45639
-7.45641
-7.45572
-7.45399
-7.45161
-7.44971
-7.44925
-7.45063
-7.45377
-7.45825
-7.46347
-7.46884
-7.47383
-7.47807
-7.48133
-7.48341
-7.48413
-7.48347
-7.48167
-7.47911
-7.47622
-7.47347
-7.47119
-7.46954
-7.46844
-7.46765
-7.46697
-7.46634
-7.46581
-7.46529
-7.46466
-7.46376
-7.46263
-7.46174
-7.46185
-7.46347
-7.46637
-7.4696
-7.4721
-7.47347
-7.47408
-7.47398
-7.47314
-7.47287
-7.47566
-7.48176
-7.4876
-7.49345
-7.50239
-7.51563
-7.53488
-7.56374
-7.60466
-7.65711
-7.71845
-7.78645
-7.85862
-7.93255
-8.00645
-8.079
-8.14894
-8.21497
-8.27692
-8.33478
-8.38849
-8.43801
-8.48338
-8.52457
-8.56161
-8.59444
-8.62306
-8.64736
-8.66732
-8.68277
-8.69367
-8.6999
-8.70141
-8.69809
-8.6899
-8.67673
-8.65854
-8.63521
-8.60669
-8.57293
-8.53393
-8.48976
-8.44037
-8.38571
-8.32569
-8.26025
-8.18937
-8.11303
-8.03124
-7.94398
-7.85123
-7.75292
-7.64902
-7.53948
-7.42443
-7.30399
-7.17827
-7.04728
-6.91109
-6.76975
-6.62333
-6.4719
-6.31552
-6.1543
-5.98833
-5.8177
-5.64254
-5.46295
-5.27902
-5.09082
-4.89841
-4.70185
-4.50125
-4.29674
-4.08842
-3.87637
-3.66065
-3.44131
-3.21842
-2.99206
-2.7623
-2.52922
-2.29293
-2.05353
-1.81113
-1.56587
-1.31788
-1.06729
-0.814266
-0.558919
-0.301466
-0.0423278
0.218157
0.479886
0.742644
1.00619
1.27029
1.53469
1.79913
2.06335
2.32707
2.59004
2.85197
3.1126
3.37168
3.62896
3.88418
4.1371
4.38749
4.63514
4.87986
5.12145
5.35978
5.5947
5.82611
6.05389
6.27797
6.49827
6.71474
6.9273
7.1359
7.3405
7.54106
7.73755
7.92994
8.11822
8.30242
8.48253
8.65855
8.83083
8.99863
9.16726
9.32312
-7.45691
-7.45687
-7.45687
-7.4569
-7.45695
-7.45692
-7.457
-7.45767
-7.45941
-7.46241
-7.46654
-7.47149
-7.47687
-7.48226
-7.4873
-7.49168
-7.49518
-7.49765
-7.49904
-7.49927
-7.49832
-7.49627
-7.49329
-7.48955
-7.48529
-7.48076
-7.47627
-7.47208
-7.46843
-7.46546
-7.46319
-7.46149
-7.46009
-7.45873
-7.45753
-7.45689
-7.45748
-7.45987
-7.46389
-7.46823
-7.47114
-7.47143
-7.46981
-7.46826
-7.46814
-7.46869
-7.46967
-7.47383
-7.4827
-7.49549
-7.5126
-7.53473
-7.56209
-7.59532
-7.63537
-7.68255
-7.73606
-7.79443
-7.85626
-7.92013
-7.98469
-8.04897
-8.11214
-8.17351
-8.2324
-8.28845
-8.34144
-8.39119
-8.43755
-8.48042
-8.51967
-8.55523
-8.58696
-8.61477
-8.63852
-8.6581
-8.67336
-8.68419
-8.69047
-8.6921
-8.68898
-8.68104
-8.66819
-8.65037
-8.62748
-8.59946
-8.56625
-8.52785
-8.48427
-8.43552
-8.3815
-8.32216
-8.25743
-8.18727
-8.11168
-8.03063
-7.94412
-7.85214
-7.75469
-7.65174
-7.54327
-7.42931
-7.30995
-7.18525
-7.05528
-6.9201
-6.77976
-6.63434
-6.48389
-6.32849
-6.16823
-6.00321
-5.83353
-5.65931
-5.48064
-5.29765
-5.11038
-4.91891
-4.7233
-4.52368
-4.32014
-4.11279
-3.90171
-3.68695
-3.46859
-3.24666
-3.02127
-2.79246
-2.56034
-2.32498
-2.0865
-1.845
-1.60062
-1.35348
-1.10375
-0.851575
-0.597097
-0.340483
-0.0820877
0.177776
0.438918
0.701132
0.964185
1.22785
1.49186
1.75598
2.01993
2.28344
2.54624
2.80806
3.06863
3.3277
3.58501
3.8403
4.09334
4.3439
4.59176
4.83671
5.07856
5.31717
5.55239
5.7841
6.01219
6.23658
6.45718
6.67395
6.8868
7.09569
7.30057
7.5014
7.69815
7.89081
8.07934
8.26374
8.44407
8.62038
8.79327
8.96151
9.13286
9.28437
-7.45805
-7.45779
-7.45742
-7.45734
-7.45823
-7.46054
-7.46421
-7.46892
-7.47431
-7.48009
-7.486
-7.49178
-7.49723
-7.50217
-7.50643
-7.50986
-7.51234
-7.51381
-7.51423
-7.51357
-7.51183
-7.50904
-7.50531
-7.5007
-7.49531
-7.48926
-7.48268
-7.47581
-7.46894
-7.46241
-7.45655
-7.45156
-7.44757
-7.44479
-7.44368
-7.44489
-7.44858
-7.45384
-7.45898
-7.46248
-7.46388
-7.46364
-7.46314
-7.4638
-7.46641
-7.47144
-7.47965
-7.49205
-7.50944
-7.53187
-7.55897
-7.59016
-7.62525
-7.66409
-7.7067
-7.753
-7.80272
-7.85533
-7.91018
-7.96652
-8.02359
-8.08068
-8.13719
-8.19255
-8.24627
-8.29799
-8.34738
-8.39421
-8.43822
-8.47924
-8.51708
-8.55155
-8.58251
-8.60977
-8.63318
-8.65257
-8.66778
-8.67866
-8.68506
-8.68688
-8.68401
-8.67635
-8.66381
-8.64633
-8.62384
-8.59625
-8.56352
-8.52562
-8.48257
-8.43435
-8.38091
-8.32217
-8.25808
-8.18861
-8.11371
-8.03338
-7.9476
-7.85637
-7.75967
-7.65751
-7.54989
-7.43683
-7.3184
-7.19463
-7.0656
-6.93134
-6.79193
-6.64741
-6.49785
-6.34334
-6.18396
-6.01982
-5.85101
-5.67766
-5.49986
-5.31773
-5.13134
-4.94075
-4.74606
-4.54737
-4.34478
-4.13838
-3.92825
-3.71445
-3.49704
-3.27608
-3.05164
-2.82379
-2.59262
-2.3582
-2.12064
-1.88004
-1.63654
-1.39025
-1.14135
-0.889967
-0.636277
-0.380463
-0.122813
0.136405
0.396959
0.658638
0.921213
1.18446
1.44811
1.71193
1.97562
2.23894
2.50159
2.76332
3.02385
3.28293
3.54028
3.79566
4.04883
4.29956
4.54761
4.79278
5.03489
5.27377
5.50928
5.74127
5.96966
6.19434
6.41524
6.63229
6.84541
7.05456
7.25968
7.46074
7.6577
7.85055
8.03929
8.22392
8.4045
8.58106
8.7543
8.92244
9.09452
9.23959
-7.46033
-7.45982
-7.4594
-7.46046
-7.46411
-7.46992
-7.47689
-7.48426
-7.49155
-7.49845
-7.5048
-7.51053
-7.5156
-7.51992
-7.52344
-7.52604
-7.52768
-7.52829
-7.52784
-7.5263
-7.52368
-7.52
-7.5153
-7.50962
-7.50305
-7.49563
-7.48743
-7.47856
-7.46924
-7.45981
-7.45077
-7.44275
-7.43652
-7.43301
-7.433
-7.43618
-7.44094
-7.44585
-7.45013
-7.45341
-7.45593
-7.45844
-7.46207
-7.46789
-7.47698
-7.49012
-7.50757
-7.52893
-7.55381
-7.58199
-7.61309
-7.64687
-7.68327
-7.72228
-7.76395
-7.80818
-7.85476
-7.90336
-7.95356
-8.00487
-8.05678
-8.10884
-8.16057
-8.21157
-8.26142
-8.3098
-8.35636
-8.40083
-8.44293
-8.48243
-8.51909
-8.55268
-8.58298
-8.60979
-8.63289
-8.6521
-8.66722
-8.67809
-8.68455
-8.68647
-8.68372
-8.67621
-8.66385
-8.64656
-8.62428
-8.59694
-8.56448
-8.52689
-8.48415
-8.43629
-8.3832
-8.32487
-8.26121
-8.19221
-8.11782
-8.03803
-7.95284
-7.86221
-7.76615
-7.66464
-7.55769
-7.44533
-7.32761
-7.20455
-7.07625
-6.9427
-6.804
-6.66017
-6.51131
-6.35748
-6.19879
-6.03532
-5.8672
-5.69453
-5.51743
-5.336
-5.15032
-4.96047
-4.76654
-4.56864
-4.36686
-4.16129
-3.95198
-3.73902
-3.52244
-3.30234
-3.07874
-2.85174
-2.62139
-2.38781
-2.15104
-1.91123
-1.66848
-1.42294
-1.17473
-0.924018
-0.670958
-0.415785
-0.158733
0.0999311
0.359997
0.621234
0.883435
1.14635
1.40974
1.67333
1.93686
2.20005
2.46264
2.72433
2.98487
3.24398
3.50141
3.75691
4.01022
4.26111
4.50935
4.75473
4.99707
5.23619
5.47194
5.7042
5.93285
6.15779
6.37894
6.59623
6.80959
7.01897
7.22432
7.4256
7.62276
7.81581
8.00473
8.18954
8.37029
8.54693
8.72014
8.88759
9.0592
9.19725
-7.46461
-7.46376
-7.46404
-7.46789
-7.4748
-7.483
-7.49144
-7.49958
-7.50714
-7.514
-7.52016
-7.5256
-7.53029
-7.53415
-7.53713
-7.53915
-7.54017
-7.54012
-7.53901
-7.5368
-7.53349
-7.5291
-7.52366
-7.51716
-7.50962
-7.50106
-7.4916
-7.48136
-7.47053
-7.4595
-7.44897
-7.43987
-7.4334
-7.43048
-7.43074
-7.43286
-7.4358
-7.43934
-7.44365
-7.44888
-7.45498
-7.46229
-7.472
-7.48512
-7.50187
-7.52201
-7.54519
-7.57112
-7.59949
-7.63008
-7.66273
-7.69733
-7.73387
-7.7723
-7.81262
-7.85477
-7.8986
-7.9439
-7.99041
-8.03783
-8.08584
-8.13411
-8.18229
-8.23005
-8.27703
-8.32292
-8.36739
-8.41014
-8.45086
-8.48928
-8.52512
-8.5581
-8.58797
-8.61448
-8.6374
-8.65649
-8.67156
-8.68241
-8.68887
-8.6908
-8.68808
-8.6806
-8.66827
-8.65103
-8.62879
-8.60152
-8.56915
-8.53165
-8.48907
-8.44131
-8.38842
-8.33027
-8.26685
-8.1981
-8.12402
-8.04458
-7.95976
-7.86954
-7.77391
-7.67286
-7.56637
-7.45449
-7.33725
-7.2147
-7.08688
-6.95383
-6.81559
-6.67224
-6.52383
-6.37047
-6.21223
-6.04924
-5.88159
-5.70941
-5.53282
-5.3519
-5.16676
-4.97748
-4.78417
-4.58691
-4.38579
-4.1809
-3.9723
-3.76005
-3.5442
-3.32482
-3.10195
-2.87568
-2.64605
-2.41316
-2.17708
-1.93794
-1.69583
-1.4509
-1.20328
-0.953113
-0.700582
-0.445919
-0.189353
0.0688707
0.328547
0.589452
0.851375
1.11407
1.37728
1.64074
1.90418
2.16732
2.42989
2.6916
2.95219
3.21139
3.46893
3.72455
3.97801
4.22907
4.47748
4.72305
4.96558
5.2049
5.44085
5.6733
5.90215
6.12728
6.34863
6.56612
6.77966
6.98921
7.19471
7.39613
7.59342
7.78658
7.9756
8.16046
8.34121
8.5177
8.69059
8.85704
9.02793
9.15906
-7.47032
-7.46975
-7.47191
-7.47853
-7.48708
-7.49575
-7.50408
-7.51189
-7.51912
-7.52571
-7.53165
-7.53686
-7.54127
-7.54482
-7.54744
-7.54907
-7.54966
-7.54918
-7.54762
-7.54495
-7.54119
-7.53634
-7.53038
-7.52324
-7.51495
-7.50563
-7.49544
-7.48458
-7.47336
-7.46227
-7.45218
-7.44418
-7.43897
-7.4361
-7.43481
-7.43495
-7.43676
-7.44062
-7.44639
-7.45403
-7.46407
-7.47702
-7.49292
-7.51163
-7.53298
-7.55674
-7.58264
-7.61048
-7.64016
-7.67154
-7.70452
-7.73902
-7.77501
-7.81244
-7.85132
-7.89159
-7.93318
-7.97597
-8.0198
-8.0645
-8.10981
-8.15551
-8.20131
-8.24692
-8.29203
-8.33634
-8.3795
-8.42122
-8.46115
-8.49899
-8.53443
-8.56715
-8.59687
-8.62331
-8.64619
-8.66527
-8.68033
-8.69117
-8.6976
-8.69948
-8.69669
-8.68912
-8.67668
-8.65932
-8.63697
-8.60959
-8.57711
-8.53955
-8.49687
-8.44912
-8.39617
-8.33803
-8.27465
-8.20598
-8.13202
-8.05273
-7.9681
-7.8781
-7.7827
-7.6819
-7.57568
-7.4641
-7.34714
-7.2249
-7.09735
-6.96458
-6.82659
-6.6835
-6.53533
-6.38223
-6.22424
-6.06152
-5.89415
-5.72229
-5.54601
-5.36546
-5.1807
-4.99185
-4.799
-4.60225
-4.40169
-4.19736
-3.98936
-3.77771
-3.5625
-3.34374
-3.12152
-2.89585
-2.66686
-2.43456
-2.19909
-1.9605
-1.71895
-1.47453
-1.22741
-0.977695
-0.725614
-0.471369
-0.215203
0.0426794
0.302054
0.562727
0.824457
1.08702
1.35013
1.61354
1.87696
2.14012
2.40273
2.66451
2.9252
3.18451
3.44218
3.69796
3.95157
4.20277
4.45134
4.69706
4.93974
5.17921
5.41531
5.64792
5.87691
6.10219
6.32368
6.54128
6.75493
6.96456
7.17014
7.3716
7.56894
7.76211
7.95112
8.13592
8.31653
8.49273
8.66512
8.83044
9.00064
9.12526
-7.47549
-7.47595
-7.48056
-7.48846
-7.49685
-7.50495
-7.5127
-7.52007
-7.527
-7.53339
-7.53916
-7.54421
-7.54846
-7.55183
-7.55426
-7.55567
-7.55604
-7.55533
-7.55353
-7.55063
-7.54664
-7.54151
-7.53515
-7.52759
-7.51905
-7.50968
-7.49959
-7.48902
-7.47845
-7.46872
-7.46064
-7.45445
-7.4496
-7.4457
-7.44335
-7.44323
-7.44539
-7.45016
-7.45802
-7.46903
-7.48297
-7.49959
-7.51869
-7.54003
-7.56339
-7.58857
-7.61543
-7.64382
-7.67367
-7.70489
-7.73743
-7.77122
-7.80628
-7.84258
-7.88013
-7.91889
-7.95883
-7.99989
-8.04196
-8.08492
-8.12858
-8.17275
-8.21719
-8.26163
-8.30578
-8.34933
-8.39196
-8.43331
-8.47306
-8.51084
-8.54632
-8.57916
-8.60903
-8.63562
-8.65865
-8.67784
-8.69295
-8.70378
-8.71015
-8.71191
-8.70894
-8.70116
-8.68848
-8.67085
-8.64822
-8.62056
-8.58781
-8.54997
-8.50708
-8.45905
-8.40591
-8.3476
-8.28409
-8.21533
-8.14132
-8.06202
-7.97741
-7.88746
-7.79214
-7.69142
-7.58531
-7.47383
-7.35701
-7.23486
-7.10741
-6.97471
-6.8368
-6.69376
-6.54568
-6.39264
-6.23474
-6.0721
-5.90486
-5.73313
-5.55704
-5.37669
-5.19219
-5.00364
-4.81116
-4.61482
-4.4147
-4.21086
-4.00336
-3.79225
-3.57757
-3.35938
-3.13771
-2.91261
-2.68416
-2.4524
-2.21744
-1.97936
-1.73829
-1.49432
-1.24761
-0.998295
-0.746594
-0.492712
-0.236871
0.0207338
0.279889
0.540393
0.802006
1.06449
1.32758
1.59099
1.85445
2.11768
2.38037
2.64227
2.90309
3.16255
3.42038
3.67631
3.93008
4.18144
4.43015
4.67601
4.91883
5.15843
5.39466
5.62738
5.85648
6.08186
6.30343
6.5211
6.7348
6.94446
7.15004
7.3515
7.54881
7.74193
7.93085
8.11552
8.2959
8.4717
8.64352
8.80769
8.97726
9.09592
-7.47824
-7.4801
-7.48635
-7.49412
-7.50179
-7.50928
-7.51662
-7.52371
-7.53047
-7.53677
-7.54249
-7.54751
-7.55175
-7.55509
-7.55749
-7.55888
-7.55921
-7.55848
-7.55667
-7.55375
-7.54972
-7.54447
-7.53804
-7.53058
-7.52232
-7.51339
-7.50404
-7.49474
-7.48603
-7.47838
-7.47187
-7.46628
-7.46142
-7.45761
-7.45567
-7.45633
-7.45997
-7.46682
-7.47691
-7.48991
-7.50559
-7.52365
-7.54385
-7.56593
-7.58972
-7.61504
-7.64178
-7.66982
-7.69913
-7.72963
-7.76131
-7.79416
-7.82821
-7.86342
-7.89984
-7.93745
-7.97626
-8.01622
-8.05726
-8.09929
-8.14214
-8.18566
-8.22962
-8.27374
-8.31775
-8.36134
-8.40413
-8.44578
-8.48592
-8.52416
-8.56012
-8.59344
-8.62376
-8.65075
-8.67408
-8.69349
-8.7087
-8.71952
-8.72578
-8.72734
-8.7241
-8.71597
-8.70291
-8.68486
-8.66178
-8.63365
-8.60045
-8.56219
-8.51884
-8.47046
-8.41694
-8.3583
-8.2945
-8.22552
-8.15131
-8.07187
-7.98714
-7.8971
-7.8017
-7.70092
-7.59478
-7.48325
-7.3664
-7.24418
-7.11668
-6.98389
-6.84591
-6.70277
-6.5546
-6.40147
-6.24352
-6.08083
-5.91357
-5.74184
-5.56581
-5.38555
-5.20121
-5.01289
-4.82068
-4.62468
-4.42492
-4.22151
-4.01445
-3.80382
-3.58963
-3.37195
-3.15078
-2.9262
-2.69823
-2.46696
-2.23244
-1.99482
-1.75415
-1.5106
-1.26425
-1.01529
-0.763919
-0.510354
-0.254773
0.00261071
0.261614
0.522002
0.783561
1.04602
1.30913
1.57259
1.83613
2.09945
2.36227
2.6243
2.88527
3.14489
3.4029
3.659
3.91294
4.16444
4.41329
4.65928
4.90221
5.14191
5.37823
5.61103
5.8402
6.06564
6.28726
6.50496
6.71865
6.92829
7.13383
7.33522
7.53244
7.72547
7.91425
8.09872
8.27881
8.45416
8.62533
8.78838
8.95737
9.07072
-7.47697
-7.48005
-7.48664
-7.4938
-7.50097
-7.50816
-7.51531
-7.52233
-7.52911
-7.53548
-7.54133
-7.54652
-7.55094
-7.55448
-7.55707
-7.55864
-7.55915
-7.55858
-7.55689
-7.55408
-7.55011
-7.54499
-7.53882
-7.53179
-7.52419
-7.51628
-7.5084
-7.50084
-7.49375
-7.48727
-7.48151
-7.47654
-7.47257
-7.47013
-7.46985
-7.47223
-7.47749
-7.4857
-7.49681
-7.51056
-7.52673
-7.54502
-7.56521
-7.58705
-7.61038
-7.63506
-7.66102
-7.68816
-7.71647
-7.74593
-7.77655
-7.80833
-7.84132
-7.87553
-7.91102
-7.94781
-7.98591
-8.0253
-8.06593
-8.10771
-8.15051
-8.19414
-8.23837
-8.28296
-8.32758
-8.37189
-8.41553
-8.4581
-8.49918
-8.53836
-8.57521
-8.60934
-8.64036
-8.66792
-8.69168
-8.71136
-8.72669
-8.73747
-8.74355
-8.74482
-8.74119
-8.7326
-8.71901
-8.70039
-8.67671
-8.64798
-8.61417
-8.5753
-8.53142
-8.48244
-8.42844
-8.36933
-8.30512
-8.23578
-8.16126
-8.08155
-7.99659
-7.90634
-7.81074
-7.70979
-7.60348
-7.49181
-7.37478
-7.2524
-7.12469
-6.99169
-6.85348
-6.71014
-6.56175
-6.40843
-6.25029
-6.08745
-5.92006
-5.74824
-5.57216
-5.39193
-5.20768
-5.01952
-4.82754
-4.63182
-4.43241
-4.22936
-4.02271
-3.81252
-3.59879
-3.38157
-3.16088
-2.93677
-2.70925
-2.47842
-2.24433
-2.00711
-1.76684
-1.52365
-1.27765
-1.02902
-0.777957
-0.524664
-0.269312
-0.0120972
0.246786
0.507108
0.768637
1.03111
1.29425
1.55778
1.82142
2.08486
2.34782
2.61
2.87114
3.13094
3.38914
3.64544
3.89953
4.15117
4.40015
4.64625
4.88928
5.12906
5.36544
5.5983
5.82751
6.05299
6.27463
6.49232
6.70598
6.91555
7.121
7.3223
7.5194
7.71228
7.90089
8.08511
8.26486
8.43971
8.61023
8.77216
8.94059
9.04933
-7.46978
-7.47349
-7.47979
-7.48666
-7.49379
-7.50102
-7.50828
-7.51547
-7.52248
-7.52916
-7.53535
-7.54091
-7.5457
-7.5496
-7.55251
-7.55437
-7.55515
-7.5548
-7.55333
-7.55073
-7.54702
-7.54229
-7.53673
-7.53058
-7.52406
-7.51735
-7.51064
-7.50415
-7.49801
-7.49241
-7.48757
-7.48383
-7.48147
-7.48082
-7.48228
-7.48621
-7.49276
-7.50192
-7.51362
-7.52766
-7.54382
-7.56181
-7.58145
-7.60251
-7.6249
-7.64849
-7.67325
-7.69912
-7.72615
-7.7543
-7.78366
-7.81426
-7.84617
-7.87946
-7.9142
-7.95044
-7.98819
-8.02746
-8.06821
-8.11035
-8.15372
-8.19816
-8.24339
-8.28911
-8.33499
-8.38066
-8.4257
-8.46969
-8.51218
-8.55271
-8.59081
-8.62605
-8.658
-8.68628
-8.71057
-8.73055
-8.74598
-8.75666
-8.76247
-8.76331
-8.75915
-8.74995
-8.73569
-8.71636
-8.69194
-8.66246
-8.62791
-8.5883
-8.54367
-8.49406
-8.43939
-8.37969
-8.31497
-8.24517
-8.17026
-8.09019
-8.0049
-7.91436
-7.81848
-7.71729
-7.61071
-7.4988
-7.38149
-7.25885
-7.13083
-6.99755
-6.85902
-6.71538
-6.56669
-6.4131
-6.25469
-6.09163
-5.92403
-5.75207
-5.57589
-5.39565
-5.21147
-5.02346
-4.83169
-4.63622
-4.43714
-4.23444
-4.0282
-3.81841
-3.60514
-3.38835
-3.16814
-2.94446
-2.7174
-2.48698
-2.25332
-2.01647
-1.7766
-1.53375
-1.2881
-1.03979
-0.789041
-0.536002
-0.280864
-0.023794
0.234983
0.49526
0.756772
1.01928
1.28248
1.5461
1.80985
2.07343
2.33653
2.59889
2.8602
3.12019
3.37859
3.63509
3.88934
4.1411
4.39017
4.63636
4.87946
5.1193
5.35573
5.5886
5.81783
6.04332
6.26497
6.48263
6.69621
6.90569
7.11103
7.31219
7.50914
7.70184
7.89025
8.07421
8.2536
8.42792
8.59777
8.75865
8.92651
9.03132
-7.45504
-7.45874
-7.46495
-7.47222
-7.47982
-7.48742
-7.495
-7.50254
-7.50997
-7.51714
-7.52387
-7.52997
-7.53525
-7.53959
-7.54292
-7.54517
-7.5463
-7.54629
-7.54517
-7.54297
-7.53975
-7.53566
-7.53083
-7.52547
-7.51977
-7.51394
-7.5081
-7.50249
-7.4973
-7.49284
-7.48938
-7.48717
-7.48643
-7.48752
-7.49068
-7.4961
-7.50387
-7.51392
-7.52615
-7.54033
-7.55627
-7.57371
-7.59251
-7.61249
-7.63361
-7.65577
-7.67902
-7.70331
-7.72874
-7.75534
-7.78325
-7.81252
-7.84332
-7.87574
-7.90988
-7.94579
-7.98351
-8.02305
-8.06435
-8.10733
-8.15182
-8.1976
-8.24437
-8.29184
-8.33958
-8.38718
-8.43418
-8.48009
-8.52442
-8.56668
-8.60634
-8.6429
-8.67591
-8.70499
-8.7298
-8.75003
-8.76544
-8.77584
-8.78117
-8.78141
-8.77655
-8.76659
-8.75152
-8.73134
-8.70607
-8.67572
-8.64029
-8.59981
-8.55435
-8.5039
-8.44851
-8.38817
-8.32286
-8.25255
-8.17719
-8.09672
-8.01108
-7.9202
-7.82402
-7.7225
-7.61564
-7.50341
-7.3858
-7.26281
-7.13447
-7.00083
-6.86196
-6.71796
-6.56895
-6.41505
-6.25636
-6.09303
-5.92521
-5.75307
-5.57681
-5.39657
-5.21247
-5.0246
-4.83304
-4.63786
-4.43908
-4.23675
-4.03091
-3.82155
-3.60872
-3.3924
-3.17265
-2.94944
-2.72285
-2.49288
-2.25964
-2.02322
-1.78374
-1.54129
-1.29602
-1.04806
-0.797627
-0.544852
-0.289912
-0.0329907
0.225696
0.485923
0.747434
1.00997
1.27324
1.53696
1.80083
2.06455
2.32781
2.59034
2.85182
3.112
3.37063
3.62736
3.88178
4.13365
4.38281
4.62907
4.87222
5.11211
5.34856
5.58145
5.81066
6.03617
6.25782
6.47543
6.68892
6.89828
7.10348
7.30448
7.50126
7.69377
7.88197
8.06566
8.24465
8.41844
8.58764
8.74751
8.91477
9.01633
-7.43213
-7.43539
-7.44214
-7.45045
-7.45884
-7.46693
-7.47494
-7.48299
-7.49109
-7.49905
-7.50661
-7.51348
-7.51944
-7.52438
-7.52825
-7.53098
-7.53255
-7.53297
-7.53227
-7.53049
-7.52774
-7.52415
-7.51988
-7.51513
-7.51007
-7.50493
-7.49991
-7.4953
-7.49134
-7.4883
-7.48637
-7.48586
-7.48698
-7.48996
-7.49493
-7.50197
-7.51105
-7.52204
-7.53479
-7.54905
-7.56466
-7.58137
-7.59912
-7.61774
-7.63729
-7.65769
-7.67906
-7.70143
-7.72497
-7.74973
-7.77593
-7.80372
-7.83329
-7.86477
-7.89832
-7.93402
-7.97193
-8.01205
-8.05431
-8.09861
-8.14471
-8.19238
-8.24128
-8.29103
-8.34116
-8.39121
-8.44064
-8.48891
-8.53544
-8.57967
-8.62098
-8.65886
-8.69283
-8.72253
-8.74766
-8.76792
-8.78304
-8.7929
-8.79751
-8.79696
-8.79128
-8.78049
-8.76455
-8.74347
-8.71728
-8.686
-8.64964
-8.6082
-8.56174
-8.51043
-8.45424
-8.39321
-8.3273
-8.25647
-8.18067
-8.09981
-8.01383
-7.92261
-7.82613
-7.72429
-7.61714
-7.50459
-7.38669
-7.26337
-7.13472
-7.00072
-6.86151
-6.71717
-6.56787
-6.41367
-6.25474
-6.09118
-5.9232
-5.75093
-5.5746
-5.39437
-5.21035
-5.02262
-4.83127
-4.63635
-4.4379
-4.23596
-4.03052
-3.82163
-3.60928
-3.3935
-3.17426
-2.95162
-2.72555
-2.49615
-2.26341
-2.0275
-1.78848
-1.54648
-1.30162
-1.05408
-0.803985
-0.551499
-0.296775
-0.040023
0.218557
0.478712
0.740206
1.00275
1.26608
1.52987
1.79385
2.05768
2.32109
2.58376
2.8454
3.10576
3.36467
3.6217
3.87631
4.12828
4.37751
4.62383
4.86703
5.10695
5.34342
5.5763
5.8055
6.03104
6.25272
6.47028
6.68365
6.89287
7.09792
7.29877
7.49535
7.68767
7.87566
8.05907
8.23767
8.41092
8.57946
8.7384
8.905
9.004
-7.40158
-7.4047
-7.41253
-7.42224
-7.43152
-7.44014
-7.44881
-7.4578
-7.46691
-7.47597
-7.48472
-7.49271
-7.49958
-7.50523
-7.50968
-7.51292
-7.51496
-7.51575
-7.51535
-7.51383
-7.51131
-7.50796
-7.50395
-7.49952
-7.49489
-7.49038
-7.48622
-7.48273
-7.48011
-7.47869
-7.47864
-7.48023
-7.48355
-7.48874
-7.4958
-7.50466
-7.5152
-7.52722
-7.54051
-7.55482
-7.57001
-7.58584
-7.60231
-7.61927
-7.63686
-7.65505
-7.67407
-7.69401
-7.71513
-7.73762
-7.76177
-7.78778
-7.81595
-7.84643
-7.87943
-7.91506
-7.95339
-7.99442
-8.03805
-8.08411
-8.13233
-8.18239
-8.23386
-8.2863
-8.33918
-8.39193
-8.44396
-8.49464
-8.54337
-8.58948
-8.63232
-8.67125
-8.70584
-8.73582
-8.76095
-8.78088
-8.79533
-8.80429
-8.80799
-8.80663
-8.80022
-8.78873
-8.77206
-8.75015
-8.72305
-8.69088
-8.65364
-8.61124
-8.56385
-8.51155
-8.45456
-8.39281
-8.32627
-8.2549
-8.17865
-8.09743
-8.0111
-7.91957
-7.82274
-7.72059
-7.6131
-7.50026
-7.38203
-7.25843
-7.12943
-6.9951
-6.85552
-6.71086
-6.56125
-6.40683
-6.24776
-6.08414
-5.91613
-5.74385
-5.56749
-5.38721
-5.20317
-5.01548
-4.82423
-4.62949
-4.43129
-4.22966
-4.02462
-3.81617
-3.60432
-3.3891
-3.17047
-2.94848
-2.7231
-2.4944
-2.2624
-2.02717
-1.78879
-1.54737
-1.30307
-1.05604
-0.806404
-0.554304
-0.299916
-0.043444
0.214897
0.474861
0.736196
0.998623
1.26186
1.52559
1.78952
2.05333
2.31672
2.57938
2.84101
3.10139
3.36043
3.61765
3.87238
4.12442
4.3737
4.62006
4.86329
5.10321
5.33969
5.57256
5.80178
6.02745
6.24924
6.46674
6.68
6.88909
7.09399
7.29468
7.4911
7.68325
7.87107
8.05422
8.23243
8.40515
8.57306
8.73109
8.89698
8.99408
-7.36551
-7.36909
-7.37851
-7.38999
-7.40034
-7.40955
-7.4188
-7.42881
-7.4394
-7.45009
-7.46042
-7.46989
-7.47796
-7.48441
-7.48942
-7.49308
-7.4954
-7.49632
-7.4959
-7.49424
-7.4915
-7.4879
-7.4837
-7.47923
-7.47478
-7.47073
-7.46734
-7.46502
-7.46397
-7.46453
-7.46677
-7.47089
-7.47687
-7.48467
-7.49414
-7.5051
-7.5173
-7.53044
-7.54431
-7.55859
-7.57317
-7.58783
-7.6026
-7.61742
-7.63248
-7.64787
-7.6639
-7.6808
-7.69895
-7.7187
-7.74038
-7.76441
-7.79102
-7.82054
-7.8531
-7.88892
-7.92795
-7.97022
-8.01549
-8.06357
-8.11407
-8.1666
-8.22068
-8.27577
-8.33128
-8.38658
-8.44099
-8.49384
-8.54448
-8.59215
-8.63612
-8.67559
-8.71027
-8.74003
-8.76481
-8.784
-8.79728
-8.80492
-8.80758
-8.80562
-8.7988
-8.78691
-8.76975
-8.7472
-8.71941
-8.68663
-8.64888
-8.60632
-8.55879
-8.50637
-8.44893
-8.3866
-8.31949
-8.24762
-8.1709
-8.08926
-8.00254
-7.91065
-7.81344
-7.71093
-7.60307
-7.48987
-7.37126
-7.24729
-7.11788
-6.98314
-6.84312
-6.69805
-6.54803
-6.3933
-6.23397
-6.07019
-5.90203
-5.72965
-5.55316
-5.37275
-5.18862
-5.00089
-4.80969
-4.61505
-4.41705
-4.21567
-4.01098
-3.80292
-3.59156
-3.37684
-3.15883
-2.93746
-2.7128
-2.48481
-2.25357
-2.01904
-1.78134
-1.54056
-1.29689
-1.05043
-0.801313
-0.549673
-0.295707
-0.0396043
0.218398
0.478069
0.739136
1.00133
1.26435
1.5279
1.79165
2.05529
2.3185
2.58096
2.84233
3.10232
3.36064
3.61706
3.87133
4.12317
4.37232
4.61854
4.86163
5.10141
5.33772
5.57042
5.79953
6.0252
6.24698
6.46436
6.67746
6.88641
7.09118
7.29174
7.48803
7.68009
7.86785
8.05079
8.22862
8.40082
8.56813
8.72531
8.89044
8.98629
-7.32563
-7.32994
-7.34148
-7.35487
-7.36585
-7.37563
-7.38622
-7.39798
-7.41035
-7.4229
-7.43511
-7.44638
-7.45597
-7.46354
-7.46928
-7.47335
-7.47575
-7.47643
-7.47551
-7.47309
-7.46949
-7.46498
-7.45997
-7.45488
-7.45014
-7.44625
-7.44352
-7.44245
-7.44315
-7.44601
-7.45091
-7.45804
-7.46704
-7.47787
-7.49009
-7.50342
-7.51742
-7.53176
-7.5461
-7.5601
-7.57367
-7.58657
-7.59901
-7.61091
-7.62272
-7.63452
-7.64695
-7.66023
-7.67503
-7.69164
-7.71075
-7.73259
-7.75767
-7.7861
-7.81823
-7.85414
-7.89388
-7.93732
-7.98419
-8.0342
-8.08689
-8.14179
-8.19832
-8.25589
-8.31379
-8.37141
-8.42792
-8.48273
-8.53498
-8.58391
-8.6283
-8.66738
-8.70095
-8.72993
-8.75449
-8.77402
-8.78801
-8.79618
-8.79917
-8.79696
-8.7897
-8.77714
-8.75917
-8.73568
-8.70692
-8.67317
-8.6348
-8.59181
-8.54422
-8.49159
-8.43381
-8.37104
-8.30352
-8.23126
-8.1542
-8.07225
-7.98528
-7.89315
-7.79575
-7.69305
-7.58504
-7.47164
-7.35284
-7.22863
-7.09899
-6.96396
-6.82369
-6.67832
-6.52803
-6.37299
-6.21336
-6.04929
-5.88088