/*--------------------------------*- C++ -*----------------------------------*\
  =========                 |
  \\      /  F ield         | OpenFOAM: The Open Source CFD Toolbox
   \\    /   O peration     | Website:  https://openfoam.org
    \\  /    A nd           | Version:  13
     \\/     M anipulation  |
\*---------------------------------------------------------------------------*/
FoamFile
{
    format      ascii;
    class       surfaceScalarField;
    location    "1000";
    object      phi;
}
// * * * * * * * * * * * * * * * * * * * * * * * * * * * * * * * * * * * * * //

dimensions      [0 3 -1 0 0 0 0];

internalField   nonuniform List<scalar> 
24170
(
3.0459e-06
1.42488e-07
2.88769e-06
1.57937e-07
2.73504e-06
1.52313e-07
2.59979e-06
1.35188e-07
2.48224e-06
1.17385e-07
2.38091e-06
1.01262e-07
2.29331e-06
8.7455e-08
2.21735e-06
7.57984e-08
2.15265e-06
6.45798e-08
2.09952e-06
5.30118e-08
2.05496e-06
4.45014e-08
2.01771e-06
3.71979e-08
1.98787e-06
2.9795e-08
1.96401e-06
2.38307e-08
1.94669e-06
1.72953e-08
1.93522e-06
1.15112e-08
1.93022e-06
5.07437e-09
-5.92691e-09
1.93621e-06
3.49139e-06
6.82707e-08
3.53511e-06
1.13495e-07
3.56091e-06
1.25855e-07
3.57009e-06
1.25764e-07
3.56691e-06
1.20265e-07
3.55383e-06
1.14266e-07
3.53275e-06
1.08421e-07
3.50726e-06
1.01163e-07
3.47905e-06
9.26544e-08
3.44729e-06
8.45546e-08
3.41118e-06
8.03942e-08
3.37398e-06
7.41613e-08
3.33792e-06
6.56337e-08
3.30293e-06
5.86351e-08
3.27052e-06
4.96008e-08
3.24252e-06
3.95059e-08
3.21819e-06
2.94905e-08
1.96478e-08
3.19282e-06
3.6789e-06
5.1873e-08
3.69237e-06
1.00005e-07
3.71058e-06
1.07389e-07
3.72979e-06
1.06474e-07
3.7471e-06
1.02941e-07
3.76212e-06
9.92548e-08
3.7752e-06
9.52938e-08
3.78595e-06
9.03566e-08
3.79395e-06
8.46281e-08
3.79964e-06
7.88247e-08
3.80463e-06
7.53388e-08
3.80801e-06
7.07299e-08
3.80923e-06
6.43785e-08
3.80932e-06
5.85186e-08
3.80759e-06
5.13489e-08
3.80403e-06
4.31002e-08
3.79883e-06
3.46815e-08
2.66962e-08
3.79167e-06
3.93466e-06
4.25801e-08
3.94412e-06
8.99971e-08
3.953e-06
9.7968e-08
3.96131e-06
9.79412e-08
3.96833e-06
9.57559e-08
3.97486e-06
9.26957e-08
3.98148e-06
8.86333e-08
3.98799e-06
8.3802e-08
3.99403e-06
7.85317e-08
3.99961e-06
7.31217e-08
4.00576e-06
6.90255e-08
4.01191e-06
6.44076e-08
4.01745e-06
5.868e-08
4.02288e-06
5.2977e-08
4.02766e-06
4.65119e-08
4.03134e-06
3.94008e-08
4.03384e-06
3.21618e-08
2.61189e-08
4.03439e-06
4.21404e-06
3.56647e-08
4.22468e-06
7.94671e-08
4.233e-06
8.95491e-08
4.23988e-06
9.10052e-08
4.24543e-06
9.02333e-08
4.2502e-06
8.79428e-08
4.25462e-06
8.41902e-08
4.25879e-06
7.96073e-08
4.2626e-06
7.46998e-08
4.26607e-06
6.96351e-08
4.26985e-06
6.52173e-08
4.27372e-06
6.05159e-08
4.27732e-06
5.50738e-08
4.28084e-06
4.94632e-08
4.28397e-06
4.34026e-08
4.28637e-06
3.69983e-08
4.28783e-06
3.06176e-08
2.54559e-08
4.28833e-06
4.51513e-06
2.96183e-08
4.52507e-06
6.92165e-08
4.53333e-06
8.09553e-08
4.54003e-06
8.41182e-08
4.54571e-06
8.44351e-08
4.55074e-06
8.28452e-08
4.55529e-06
7.95757e-08
4.55947e-06
7.5373e-08
4.5633e-06
7.08139e-08
4.56681e-06
6.60599e-08
4.57037e-06
6.15745e-08
4.57392e-06
5.68994e-08
4.5772e-06
5.17328e-08
4.58026e-06
4.63643e-08
4.5829e-06
4.07407e-08
4.58487e-06
3.49716e-08
4.58599e-06
2.93894e-08
2.48699e-08
4.58645e-06
4.83836e-06
2.39762e-08
4.84719e-06
6.05531e-08
4.85387e-06
7.42701e-08
4.86002e-06
7.79412e-08
4.86596e-06
7.85231e-08
4.87137e-06
7.7438e-08
4.87628e-06
7.46435e-08
4.88078e-06
7.08494e-08
4.88494e-06
6.6639e-08
4.8888e-06
6.22052e-08
4.89255e-06
5.78203e-08
4.89619e-06
5.32678e-08
4.89956e-06
4.83811e-08
4.90262e-06
4.332e-08
4.90523e-06
3.81332e-08
4.90721e-06
3.29469e-08
4.90848e-06
2.80004e-08
2.39453e-08
4.9093e-06
5.1835e-06
2.00709e-08
5.19155e-06
5.23819e-08
5.19902e-06
6.66527e-08
5.2055e-06
7.13486e-08
5.21137e-06
7.25655e-08
5.21682e-06
7.19259e-08
5.22182e-06
6.95761e-08
5.22644e-06
6.61805e-08
5.23074e-06
6.22948e-08
5.23476e-06
5.81549e-08
5.23861e-06
5.39435e-08
5.24229e-06
4.95794e-08
5.24569e-06
4.49792e-08
5.24874e-06
4.02586e-08
5.25136e-06
3.5497e-08
5.25341e-06
3.08186e-08
5.2549e-06
2.64376e-08
2.27293e-08
5.25601e-06
5.5544e-06
1.70177e-08
5.56155e-06
4.53733e-08
5.56907e-06
5.91701e-08
5.57577e-06
6.46449e-08
5.58187e-06
6.6484e-08
5.58753e-06
6.62678e-08
5.59273e-06
6.43589e-08
5.59753e-06
6.13694e-08
5.602e-06
5.78224e-08
5.60618e-06
5.39789e-08
5.61015e-06
4.99936e-08
5.61389e-06
4.58563e-08
5.61733e-06
4.15544e-08
5.62042e-06
3.71766e-08
5.62308e-06
3.28158e-08
5.62526e-06
2.85968e-08
5.62695e-06
2.46608e-08
2.12793e-08
5.62836e-06
5.95243e-06
1.43865e-08
5.95874e-06
3.89952e-08
5.96588e-06
5.19506e-08
5.97264e-06
5.78029e-08
5.97896e-06
6.01016e-08
5.98489e-06
6.02838e-08
5.99037e-06
5.88283e-08
5.99542e-06
5.6269e-08
6.00012e-06
5.30938e-08
6.0045e-06
4.9575e-08
6.00862e-06
4.58608e-08
6.01247e-06
4.20003e-08
6.01601e-06
3.80167e-08
6.01917e-06
3.39991e-08
6.02193e-06
3.00353e-08
6.02424e-06
2.62269e-08
6.02615e-06
2.27063e-08
1.95931e-08
6.02779e-06
6.37909e-06
1.21123e-08
6.38474e-06
3.34642e-08
6.39145e-06
4.52637e-08
6.39812e-06
5.11299e-08
6.40455e-06
5.36677e-08
6.41067e-06
5.41419e-08
6.41641e-06
5.3066e-08
6.42175e-06
5.09152e-08
6.42671e-06
4.81197e-08
6.43133e-06
4.49458e-08
6.43564e-06
4.15482e-08
6.43965e-06
3.79927e-08
6.44332e-06
3.43466e-08
6.44661e-06
3.06943e-08
6.4495e-06
2.71148e-08
6.45198e-06
2.37063e-08
6.45409e-06
2.05352e-08
1.77153e-08
6.45594e-06
5.74253e-06
1.04557e-08
5.74681e-06
2.91838e-08
5.75215e-06
3.99002e-08
5.75766e-06
4.55834e-08
5.7631e-06
4.8197e-08
5.76837e-06
4.8839e-08
5.77337e-06
4.80292e-08
5.77807e-06
4.61945e-08
5.78245e-06
4.37183e-08
5.78654e-06
4.08527e-08
5.79034e-06
3.77375e-08
5.79386e-06
3.4473e-08
5.79708e-06
3.11314e-08
5.79998e-06
2.77837e-08
5.80255e-06
2.45282e-08
5.8048e-06
2.14221e-08
5.80676e-06
1.85575e-08
1.59523e-08
5.80848e-06
6.99987e-06
8.73943e-09
7.00435e-06
2.47596e-08
7.0101e-06
3.41523e-08
7.01622e-06
3.9445e-08
7.02239e-06
4.20038e-08
7.02845e-06
4.27463e-08
7.03428e-06
4.21678e-08
7.0398e-06
4.06396e-08
7.045e-06
3.84973e-08
7.04986e-06
3.59624e-08
7.0544e-06
3.31961e-08
7.05859e-06
3.02744e-08
7.06243e-06
2.72875e-08
7.06591e-06
2.43135e-08
7.069e-06
2.14153e-08
7.07176e-06
1.86749e-08
7.07417e-06
1.61114e-08
1.38008e-08
7.07632e-06
8.53257e-06
7.04315e-09
8.53718e-06
2.01722e-08
8.54328e-06
2.80683e-08
8.54998e-06
3.27574e-08
8.55686e-06
3.51134e-08
8.56373e-06
3.58712e-08
8.57041e-06
3.54653e-08
8.57682e-06
3.42251e-08
8.58289e-06
3.24096e-08
8.5886e-06
3.02503e-08
8.59393e-06
2.78425e-08
8.59888e-06
2.53286e-08
8.60342e-06
2.27438e-08
8.60755e-06
2.01874e-08
8.61127e-06
1.76991e-08
8.61459e-06
1.53433e-08
8.61757e-06
1.31468e-08
1.11379e-08
8.62021e-06
1.04009e-05
5.32668e-09
1.04056e-05
1.55351e-08
1.0412e-05
2.16945e-08
1.04192e-05
2.55357e-08
1.04269e-05
2.75312e-08
1.04345e-05
2.81885e-08
1.04421e-05
2.79012e-08
1.04495e-05
2.69006e-08
1.04565e-05
2.54322e-08
1.04631e-05
2.36249e-08
1.04693e-05
2.16558e-08
1.0475e-05
1.95517e-08
1.04804e-05
1.74371e-08
1.04852e-05
1.53199e-08
1.04896e-05
1.32925e-08
1.04936e-05
1.13523e-08
1.04972e-05
9.55659e-09
7.90279e-09
1.05004e-05
1.26785e-05
3.63828e-09
1.26832e-05
1.08182e-08
1.26899e-05
1.50688e-08
1.26977e-05
1.77897e-08
1.2706e-05
1.92129e-08
1.27146e-05
1.9653e-08
1.27231e-05
1.93837e-08
1.27315e-05
1.85972e-08
1.27395e-05
1.74339e-08
1.27471e-05
1.60435e-08
1.27542e-05
1.44926e-08
1.27609e-05
1.2885e-08
1.27671e-05
1.12427e-08
1.27728e-05
9.63974e-09
1.27779e-05
8.08112e-09
1.27827e-05
6.6205e-09
1.2787e-05
5.24415e-09
4.00473e-09
1.27909e-05
1.54549e-05
1.91926e-09
1.54598e-05
6.01106e-09
1.54668e-05
8.0933e-09
1.54752e-05
9.41648e-09
1.54844e-05
1.00432e-08
1.54939e-05
1.011e-08
1.55036e-05
9.77179e-09
1.5513e-05
9.13713e-09
1.55222e-05
8.28854e-09
1.55309e-05
7.30473e-09
1.55392e-05
6.24202e-09
1.55469e-05
5.14756e-09
1.55541e-05
4.05197e-09
1.55607e-05
2.98406e-09
1.55668e-05
1.96236e-09
1.55724e-05
1.00311e-09
1.55776e-05
1.1204e-10
-6.87149e-10
1.55823e-05
1.88395e-05
1.17803e-10
1.88447e-05
8.47166e-10
1.88523e-05
4.58228e-10
1.88616e-05
8.7342e-11
1.8872e-05
-3.06832e-10
1.88829e-05
-7.60383e-10
1.88939e-05
-1.25333e-09
1.89048e-05
-1.77108e-09
1.89154e-05
-2.30274e-09
1.89255e-05
-2.83758e-09
1.89351e-05
-3.36578e-09
1.89441e-05
-3.87947e-09
1.89525e-05
-4.37117e-09
1.89603e-05
-4.83463e-09
1.89676e-05
-5.26434e-09
1.89742e-05
-5.65561e-09
1.89804e-05
-6.00821e-09
-6.30188e-09
1.8986e-05
2.29655e-05
-1.99754e-09
2.29715e-05
-5.24471e-09
2.29806e-05
-8.60533e-09
2.29917e-05
-1.10148e-08
2.3004e-05
-1.26411e-08
2.30169e-05
-1.37166e-08
2.30301e-05
-1.44025e-08
2.3043e-05
-1.47688e-08
2.30557e-05
-1.49241e-08
2.30677e-05
-1.49102e-08
2.30792e-05
-1.4804e-08
2.30899e-05
-1.46228e-08
2.31e-05
-1.44068e-08
2.31093e-05
-1.41621e-08
2.31179e-05
-1.39068e-08
2.31259e-05
-1.36433e-08
2.31333e-05
-1.33795e-08
-1.30953e-08
2.31401e-05
1.68125e-05
-3.78632e-09
1.68174e-05
-1.0243e-08
1.68247e-05
-1.59661e-08
1.68335e-05
-1.98523e-08
1.68431e-05
-2.22763e-08
1.68531e-05
-2.3733e-08
1.68631e-05
-2.44425e-08
1.68729e-05
-2.46334e-08
1.68825e-05
-2.43967e-08
1.68914e-05
-2.39308e-08
1.69e-05
-2.32775e-08
1.69079e-05
-2.25542e-08
1.69153e-05
-2.17705e-08
1.69221e-05
-2.09901e-08
1.69284e-05
-2.0212e-08
1.69343e-05
-1.94643e-08
1.69396e-05
-1.87441e-08
-1.804e-08
1.69446e-05
1.46364e-05
-5.68616e-09
1.46416e-05
-1.54546e-08
1.4649e-05
-2.34142e-08
1.46576e-05
-2.85452e-08
1.46669e-05
-3.15664e-08
1.46763e-05
-3.32213e-08
1.46857e-05
-3.38694e-08
1.46948e-05
-3.3733e-08
1.47034e-05
-3.30826e-08
1.47116e-05
-3.20811e-08
1.47192e-05
-3.08947e-08
1.47262e-05
-2.96025e-08
1.47328e-05
-2.82849e-08
1.47388e-05
-2.69806e-08
1.47443e-05
-2.57251e-08
1.47494e-05
-2.45294e-08
1.4754e-05
-2.34057e-08
-2.23296e-08
1.47583e-05
1.27423e-05
-7.81298e-09
1.27479e-05
-2.1107e-08
1.27557e-05
-3.1273e-08
1.27644e-05
-3.72483e-08
1.27734e-05
-4.06373e-08
1.27825e-05
-4.23388e-08
1.27914e-05
-4.27744e-08
1.27999e-05
-4.22428e-08
1.28078e-05
-4.10644e-08
1.28152e-05
-3.95033e-08
1.2822e-05
-3.77301e-08
1.28283e-05
-3.58655e-08
1.2834e-05
-3.40046e-08
1.28393e-05
-3.22026e-08
1.2844e-05
-3.04909e-08
1.28484e-05
-2.88895e-08
1.28524e-05
-2.73999e-08
-2.60008e-08
1.28561e-05
1.10934e-05
-1.02864e-08
1.11e-05
-2.76321e-08
1.11083e-05
-3.95795e-08
1.1117e-05
-4.59709e-08
1.11258e-05
-4.94474e-08
1.11345e-05
-5.10636e-08
1.11429e-05
-5.11357e-08
1.11507e-05
-5.00861e-08
1.11579e-05
-4.83264e-08
1.11646e-05
-4.61583e-08
1.11706e-05
-4.37819e-08
1.11761e-05
-4.13474e-08
1.1181e-05
-3.89584e-08
1.11855e-05
-3.66776e-08
1.11896e-05
-3.45424e-08
1.11933e-05
-3.25627e-08
1.11966e-05
-3.07546e-08
-2.9053e-08
1.11997e-05
9.65822e-06
-1.32635e-08
9.66599e-06
-3.52969e-08
9.67474e-06
-4.83038e-08
9.68332e-06
-5.44998e-08
9.69172e-06
-5.78539e-08
9.69988e-06
-5.92036e-08
9.70755e-06
-5.88242e-08
9.71465e-06
-5.72017e-08
9.72117e-06
-5.48455e-08
9.72708e-06
-5.20859e-08
9.73241e-06
-4.91225e-08
9.73719e-06
-4.61348e-08
9.74147e-06
-4.32354e-08
9.7453e-06
-4.05124e-08
9.74873e-06
-3.79806e-08
9.75183e-06
-3.56634e-08
9.75465e-06
-3.3581e-08
-3.16162e-08
9.75722e-06
8.40927e-06
-1.7164e-08
8.41844e-06
-4.44246e-08
8.42702e-06
-5.68223e-08
8.43506e-06
-6.25531e-08
8.44295e-06
-6.57258e-08
8.45052e-06
-6.68132e-08
8.45759e-06
-6.58945e-08
8.46408e-06
-6.37e-08
8.47e-06
-6.07659e-08
8.47533e-06
-5.74106e-08
8.48008e-06
-5.38791e-08
8.48428e-06
-5.03413e-08
8.48798e-06
-4.6959e-08
8.49126e-06
-4.3789e-08
8.49417e-06
-4.08957e-08
8.49677e-06
-3.82758e-08
8.49913e-06
-3.59262e-08
-3.37384e-08
8.50124e-06
7.32252e-06
-2.23848e-08
7.33311e-06
-5.49708e-08
7.34119e-06
-6.48968e-08
7.34864e-06
-6.99795e-08
7.35612e-06
-7.32029e-08
7.36318e-06
-7.38488e-08
7.36968e-06
-7.24088e-08
7.37563e-06
-6.96532e-08
7.38102e-06
-6.61573e-08
7.38585e-06
-6.22527e-08
7.39011e-06
-5.81394e-08
7.39385e-06
-5.40938e-08
7.39714e-06
-5.02307e-08
7.40002e-06
-4.66791e-08
7.40258e-06
-4.34569e-08
7.40488e-06
-4.05676e-08
7.40697e-06
-3.80302e-08
-3.56227e-08
7.40888e-06
6.37795e-06
-3.02565e-08
6.38751e-06
-6.45749e-08
6.39626e-06
-7.36574e-08
6.40428e-06
-7.79876e-08
6.41189e-06
-8.08339e-08
6.41904e-06
-8.09935e-08
6.42565e-06
-7.90204e-08
6.43182e-06
-7.58095e-08
6.43758e-06
-7.19209e-08
6.44295e-06
-6.7598e-08
6.44786e-06
-6.30857e-08
6.45236e-06
-5.85677e-08
6.45645e-06
-5.43243e-08
6.46019e-06
-5.04111e-08
6.46363e-06
-4.68852e-08
6.46683e-06
-4.37616e-08
6.46984e-06
-4.10335e-08
-3.84776e-08
6.47274e-06
5.56043e-06
-4.52283e-08
5.57062e-06
-7.48057e-08
5.58402e-06
-8.70873e-08
5.5997e-06
-9.36534e-08
5.61533e-06
-9.644e-08
5.63071e-06
-9.63365e-08
5.64559e-06
-9.38888e-08
5.65957e-06
-8.97758e-08
5.67239e-06
-8.47145e-08
5.68388e-06
-7.91044e-08
5.69399e-06
-7.31853e-08
5.7027e-06
-6.72469e-08
5.71007e-06
-6.16612e-08
5.71618e-06
-5.65056e-08
5.72116e-06
-5.18422e-08
5.72513e-06
-4.77282e-08
5.72829e-06
-4.41539e-08
-4.13231e-08
5.73115e-06
4.88951e-06
-1.07138e-07
4.93992e-06
-1.25259e-07
4.97815e-06
-1.25341e-07
5.0054e-06
-1.20879e-07
5.02398e-06
-1.14989e-07
5.03414e-06
-1.06455e-07
5.03709e-06
-9.68171e-08
5.03468e-06
-8.73463e-08
5.02813e-06
-7.81527e-08
5.01796e-06
-6.89318e-08
5.00471e-06
-5.99146e-08
4.98906e-06
-5.1552e-08
4.97146e-06
-4.40208e-08
4.95247e-06
-3.74931e-08
4.9326e-06
-3.19503e-08
4.91238e-06
-2.74866e-08
4.89223e-06
-2.39762e-08
-2.1579e-08
4.87253e-06
4.09554e-06
3.97028e-06
3.84494e-06
3.72406e-06
3.60908e-06
3.50262e-06
3.40581e-06
3.31846e-06
3.24031e-06
3.17138e-06
3.11148e-06
3.05993e-06
3.01592e-06
2.97843e-06
2.94648e-06
2.919e-06
2.89504e-06
2.87346e-06
-7.53871e-09
7.32418e-09
-2.15745e-08
1.38117e-08
-3.67155e-08
1.47741e-08
-4.99315e-08
1.29943e-08
-5.71359e-08
6.77627e-09
-5.17938e-08
-5.62741e-09
-3.16368e-08
-2.06319e-08
1.47009e-09
-3.34473e-08
4.35966e-08
-4.25583e-08
9.07717e-08
-4.73708e-08
1.38201e-07
-4.77002e-08
1.82999e-07
-4.4891e-08
2.22823e-07
-4.00047e-08
2.56591e-07
-3.38067e-08
2.83306e-07
-2.68446e-08
3.02722e-07
-1.94296e-08
3.1435e-07
-1.17253e-08
3.18059e-07
-3.72186e-09
3.13451e-07
4.53131e-09
3.00626e-07
1.27903e-08
2.79891e-07
2.06704e-08
2.52027e-07
2.77904e-08
2.1819e-07
3.37678e-08
1.79916e-07
3.8147e-08
1.39407e-07
4.04344e-08
9.90659e-08
4.01699e-08
6.18697e-08
3.71032e-08
3.0253e-08
3.13985e-08
6.15823e-09
2.39846e-08
-1.05877e-08
1.65078e-08
-2.08747e-08
1.01985e-08
-2.59029e-08
4.8046e-09
-2.56056e-08
-3.78047e-10
-1.95679e-08
-6.38668e-09
-5.41705e-09
-1.41342e-08
1.78544e-08
-2.36612e-08
5.01337e-08
-3.22078e-08
8.57644e-08
-3.58004e-08
1.18616e-07
-3.26987e-08
1.43303e-07
-2.46142e-08
1.57864e-07
-1.4345e-08
1.62934e-07
-4.85659e-09
1.61517e-07
1.67127e-09
1.56883e-07
4.9276e-09
1.51721e-07
5.4342e-09
1.47281e-07
4.83166e-09
1.38606e-07
8.99514e-09
1.18466e-07
2.07809e-08
7.84568e-08
4.03356e-08
1.38972e-08
6.58049e-08
-7.40533e-08
8.83948e-08
-1.78063e-07
1.05438e-07
-2.97299e-07
1.19582e-07
-4.27091e-07
1.30992e-07
-5.65667e-07
1.38747e-07
-7.07139e-07
1.42401e-07
-8.4877e-07
1.41763e-07
-9.86463e-07
1.38327e-07
-1.11884e-06
1.32389e-07
-1.24405e-06
1.25595e-07
-1.36172e-06
1.17679e-07
-1.46987e-06
1.08352e-07
-1.56925e-06
9.93388e-08
-1.66072e-06
9.15335e-08
-1.74525e-06
8.45202e-08
-1.82315e-06
7.78817e-08
-1.89515e-06
7.20085e-08
-1.96205e-06
6.68377e-08
-2.02428e-06
6.2288e-08
-2.08263e-06
5.82749e-08
-2.13728e-06
5.47394e-08
-2.18895e-06
5.15667e-08
-2.23758e-06
4.87366e-08
-2.28384e-06
4.61253e-08
-2.32753e-06
4.37576e-08
-2.36924e-06
4.15137e-08
-2.40868e-06
3.94388e-08
-2.44632e-06
3.74352e-08
-2.48184e-06
3.55613e-08
-2.5157e-06
3.37115e-08
-2.54759e-06
3.19532e-08
-2.57787e-06
3.02052e-08
-2.60628e-06
2.85301e-08
-2.63315e-06
2.6851e-08
-2.65825e-06
2.5226e-08
-2.68182e-06
2.36001e-08
-2.7037e-06
2.20101e-08
-2.72402e-06
2.04088e-08
-2.74267e-06
1.8833e-08
-2.75977e-06
1.72391e-08
-2.77536e-06
1.56695e-08
-2.7895e-06
1.40843e-08
-2.80208e-06
1.25033e-08
-2.81309e-06
1.09088e-08
-2.82247e-06
9.30431e-09
-2.83021e-06
7.66964e-09
-2.83625e-06
6.0005e-09
-2.84055e-06
4.28062e-09
-2.84304e-06
2.51304e-09
-2.84374e-06
7.38557e-10
-2.84278e-06
-8.92737e-10
-2.84038e-06
-2.28787e-09
-2.83667e-06
-3.56139e-09
-2.83167e-06
-4.78595e-09
-2.82545e-06
-6.00697e-09
-2.818e-06
-7.20569e-09
-2.80939e-06
-8.42017e-09
-2.79958e-06
-9.61257e-09
-2.78864e-06
-1.08204e-08
-2.77651e-06
-1.19995e-08
-2.76326e-06
-1.31911e-08
-2.74886e-06
-1.43502e-08
-2.73335e-06
-1.55203e-08
-2.71671e-06
-1.66572e-08
-2.69899e-06
-1.78034e-08
-2.68017e-06
-1.89154e-08
-2.66029e-06
-2.00307e-08
-2.63934e-06
-2.11138e-08
-2.61737e-06
-2.22001e-08
-2.59432e-06
-2.32662e-08
-2.57023e-06
-2.43335e-08
-2.54506e-06
-2.53887e-08
-2.51887e-06
-2.64404e-08
-2.49165e-06
-2.74859e-08
-2.46343e-06
-2.85257e-08
-2.43419e-06
-2.95648e-08
-2.40393e-06
-3.05918e-08
-2.37265e-06
-3.16249e-08
-2.34032e-06
-3.26411e-08
-2.30698e-06
-3.36702e-08
-2.27257e-06
-3.46751e-08
-2.23716e-06
-3.56893e-08
-2.20069e-06
-3.66658e-08
-2.16324e-06
-3.76547e-08
-2.12475e-06
-3.85942e-08
-2.08532e-06
-3.95162e-08
-2.04493e-06
-4.03627e-08
-2.00368e-06
-4.11675e-08
-1.96147e-06
-4.19799e-08
-1.91825e-06
-4.2909e-08
-1.87408e-06
-4.38053e-08
-1.82909e-06
-4.46546e-08
-1.78329e-06
-4.54873e-08
-1.73673e-06
-4.63079e-08
-1.68939e-06
-4.71016e-08
-1.64134e-06
-4.78717e-08
-1.59257e-06
-4.86082e-08
-1.54316e-06
-4.93099e-08
-1.4931e-06
-4.99788e-08
-1.44246e-06
-5.06075e-08
-1.39126e-06
-5.11906e-08
-1.33955e-06
-5.17453e-08
-1.28737e-06
-5.22401e-08
-1.23476e-06
-5.26939e-08
-1.18177e-06
-5.30933e-08
-1.12847e-06
-5.34373e-08
-1.07488e-06
-5.37352e-08
-1.02107e-06
-5.39793e-08
-9.67058e-07
-5.41844e-08
-9.12895e-07
-5.43474e-08
-8.58608e-07
-5.44819e-08
-8.04216e-07
-5.45861e-08
-7.49744e-07
-5.46725e-08
-6.95199e-07
-5.47377e-08
-6.40604e-07
-5.47901e-08
-5.85961e-07
-5.48236e-08
-5.31299e-07
-5.48425e-08
-4.76616e-07
-5.48445e-08
-4.21941e-07
-5.48336e-08
-3.6727e-07
-5.48081e-08
-3.12635e-07
-5.47665e-08
-2.58046e-07
-5.46972e-08
-2.03574e-07
-5.45725e-08
-1.49297e-07
-5.4353e-08
-9.54103e-08
-5.39481e-08
-4.2317e-08
-5.31299e-08
9.30926e-09
-5.16452e-08
5.78475e-08
-4.85371e-08
1.02778e-07
-4.49177e-08
-2.05193e-08
1.23291e-07
-3.83361e-09
1.08087e-08
-1.19864e-08
2.16842e-08
-1.74881e-08
1.95407e-08
-1.22502e-08
7.28719e-09
8.69644e-09
-1.49375e-08
4.47918e-08
-4.20992e-08
9.07744e-08
-6.7027e-08
1.41825e-07
-8.47066e-08
1.92854e-07
-9.38175e-08
2.40568e-07
-9.52034e-08
2.83358e-07
-9.06393e-08
3.20532e-07
-8.21287e-08
3.5173e-07
-7.13059e-08
3.77182e-07
-5.92923e-08
3.97053e-07
-4.67919e-08
4.11796e-07
-3.41933e-08
4.21704e-07
-2.16934e-08
4.27339e-07
-9.37679e-09
4.29063e-07
2.7571e-09
4.27033e-07
1.47921e-08
4.20872e-07
2.67872e-08
4.10027e-07
3.85854e-08
3.93888e-07
4.98629e-08
3.71899e-07
6.00649e-08
3.4385e-07
6.84378e-08
3.0987e-07
7.40728e-08
2.70859e-07
7.60707e-08
2.28346e-07
7.38094e-08
1.85045e-07
6.72353e-08
1.44513e-07
5.69111e-08
1.11041e-07
4.36267e-08
8.7579e-08
2.80094e-08
7.67177e-08
1.04398e-08
7.84137e-08
-8.43227e-09
9.22327e-08
-2.79987e-08
1.14384e-07
-4.60929e-08
1.39065e-07
-5.68547e-08
1.58718e-07
-5.55593e-08
1.69611e-07
-4.34795e-08
1.70627e-07
-2.55375e-08
1.62483e-07
-5.98438e-09
1.46562e-07
1.13148e-08
1.24272e-07
2.43026e-08
9.12117e-08
3.83731e-08
3.84902e-08
5.85626e-08
-4.17822e-08
8.55643e-08
-1.50812e-07
1.18335e-07
-2.82253e-07
1.5256e-07
-4.27038e-07
1.85346e-07
-5.76606e-07
2.15693e-07
-7.28843e-07
2.40895e-07
-8.81953e-07
2.58983e-07
-1.03254e-06
2.70471e-07
-1.17659e-06
2.75459e-07
-1.31137e-06
2.73799e-07
-1.43458e-06
2.65989e-07
-1.54592e-06
2.5333e-07
-1.64506e-06
2.37733e-07
-1.73305e-06
2.20524e-07
-1.81039e-06
2.03121e-07
-1.87889e-06
1.86278e-07
-1.94057e-06
1.70126e-07
-1.99664e-06
1.55463e-07
-2.04768e-06
1.42611e-07
-2.09453e-06
1.31382e-07
-2.13814e-06
1.21497e-07
-2.179e-06
1.12874e-07
-2.21753e-06
1.05354e-07
-2.254e-06
9.87628e-08
-2.28867e-06
9.29339e-08
-2.32164e-06
8.77323e-08
-2.35312e-06
8.3025e-08
-2.3831e-06
7.87264e-08
-2.41174e-06
7.47343e-08
-2.439e-06
7.10023e-08
-2.46502e-06
6.74522e-08
-2.4897e-06
6.40751e-08
-2.51315e-06
6.08101e-08
-2.53527e-06
5.76576e-08
-2.55618e-06
5.45683e-08
-2.57578e-06
5.15553e-08
-2.59417e-06
4.85799e-08
-2.61125e-06
4.5658e-08
-2.62714e-06
4.27579e-08
-2.64176e-06
3.98981e-08
-2.65517e-06
3.70518e-08
-2.66732e-06
3.4231e-08
-2.67824e-06
3.14196e-08
-2.68792e-06
2.86082e-08
-2.69638e-06
2.58222e-08
-2.70371e-06
2.30322e-08
-2.70991e-06
2.02503e-08
-2.71496e-06
1.74829e-08
-2.71883e-06
1.47179e-08
-2.72155e-06
1.19683e-08
-2.72314e-06
9.22436e-09
-2.72366e-06
6.50261e-09
-2.72318e-06
3.80247e-09
-2.72179e-06
1.15441e-09
-2.71959e-06
-1.42377e-09
-2.71648e-06
-3.92169e-09
-2.71229e-06
-6.38327e-09
-2.70687e-06
-8.82009e-09
-2.70026e-06
-1.12362e-08
-2.69243e-06
-1.3639e-08
-2.68343e-06
-1.60346e-08
-2.67325e-06
-1.84272e-08
-2.66192e-06
-2.08098e-08
-2.64943e-06
-2.31842e-08
-2.63581e-06
-2.55386e-08
-2.62106e-06
-2.78784e-08
-2.60519e-06
-3.01911e-08
-2.58821e-06
-3.24871e-08
-2.57014e-06
-3.47525e-08
-2.55098e-06
-3.70001e-08
-2.53076e-06
-3.92134e-08
-2.50948e-06
-4.14061e-08
-2.48716e-06
-4.35661e-08
-2.4638e-06
-4.57109e-08
-2.4394e-06
-4.78313e-08
-2.41395e-06
-4.99438e-08
-2.38746e-06
-5.20368e-08
-2.35995e-06
-5.41238e-08
-2.33143e-06
-5.61964e-08
-2.30191e-06
-5.82639e-08
-2.27138e-06
-6.03204e-08
-2.23984e-06
-6.23699e-08
-2.20729e-06
-6.44117e-08
-2.17372e-06
-6.64435e-08
-2.13913e-06
-6.84695e-08
-2.10353e-06
-7.04784e-08
-2.06692e-06
-7.2476e-08
-2.0293e-06
-7.44441e-08
-1.99067e-06
-7.63963e-08
-1.95104e-06
-7.83074e-08
-1.91041e-06
-8.01853e-08
-1.86876e-06
-8.20072e-08
-1.82605e-06
-8.37862e-08
-1.78232e-06
-8.55525e-08
-1.73767e-06
-8.73348e-08
-1.69216e-06
-8.90795e-08
-1.64581e-06
-9.07776e-08
-1.59867e-06
-9.24422e-08
-1.55075e-06
-9.40689e-08
-1.50208e-06
-9.56424e-08
-1.45269e-06
-9.71616e-08
-1.4026e-06
-9.86104e-08
-1.35187e-06
-9.99915e-08
-1.30053e-06
-1.01295e-07
-1.24861e-06
-1.02528e-07
-1.19615e-06
-1.03663e-07
-1.1432e-06
-1.04734e-07
-1.0898e-06
-1.05697e-07
-1.03599e-06
-1.06576e-07
-9.81825e-07
-1.07343e-07
-9.27354e-07
-1.08011e-07
-8.72619e-07
-1.08574e-07
-8.17674e-07
-1.09046e-07
-7.62552e-07
-1.09425e-07
-7.07293e-07
-1.09735e-07
-6.51926e-07
-1.09975e-07
-5.96475e-07
-1.10167e-07
-5.40959e-07
-1.10314e-07
-4.85391e-07
-1.1043e-07
-4.29784e-07
-1.10514e-07
-3.74146e-07
-1.10572e-07
-3.18493e-07
-1.10599e-07
-2.62829e-07
-1.106e-07
-2.07169e-07
-1.10579e-07
-1.51514e-07
-1.10533e-07
-9.58812e-08
-1.10463e-07
-4.02782e-08
-1.10346e-07
1.52459e-08
-1.10136e-07
7.06179e-08
-1.09744e-07
1.25668e-07
-1.09011e-07
1.80148e-07
-1.07602e-07
2.33537e-07
-1.05021e-07
2.85304e-07
-1.00272e-07
3.32162e-07
-9.17428e-08
-6.54254e-08
3.77098e-07
-2.9206e-10
1.08108e-08
7.39791e-10
2.03057e-08
1.27842e-08
6.90344e-09
4.47996e-08
-2.50137e-08
9.39844e-08
-6.44341e-08
1.51222e-07
-9.94866e-08
2.07275e-07
-1.2324e-07
2.56794e-07
-1.34308e-07
2.97591e-07
-1.34723e-07
3.29982e-07
-1.27636e-07
3.55185e-07
-1.15916e-07
3.74724e-07
-1.01687e-07
3.89678e-07
-8.63156e-08
4.00976e-07
-7.05993e-08
4.09104e-07
-5.49648e-08
4.14529e-07
-3.96241e-08
4.17464e-07
-2.46672e-08
4.18215e-07
-1.01354e-08
4.16991e-07
3.95051e-09
4.1417e-07
1.75952e-08
4.10044e-07
3.08866e-08
4.04764e-07
4.38438e-08
3.98198e-07
5.64063e-08
3.89888e-07
6.835e-08
3.79084e-07
7.92344e-08
3.64779e-07
8.8359e-08
3.4609e-07
9.47659e-08
3.22555e-07
9.73304e-08
2.94808e-07
9.49946e-08
2.64671e-07
8.70279e-08
2.35121e-07
7.31851e-08
2.09285e-07
5.37969e-08
1.89877e-07
2.98142e-08
1.78394e-07
2.89928e-09
1.73683e-07
-2.33106e-08
1.69435e-07
-4.1981e-08
1.58508e-07
-4.5929e-08
1.38099e-07
-3.51699e-08
1.09023e-07
-1.43065e-08
7.18252e-08
1.17594e-08
2.48537e-08
4.11932e-08
-3.69343e-08
7.33512e-08
-1.19595e-07
1.0719e-07
-2.25054e-07
1.44043e-07
-3.50908e-07
1.84568e-07
-4.91575e-07
2.26364e-07
-6.3945e-07
2.66327e-07
-7.88431e-07
3.01673e-07
-9.33231e-07
3.30262e-07
-1.06856e-06
3.51183e-07
-1.19166e-06
3.64155e-07
-1.30159e-06
3.69143e-07
-1.39778e-06
3.66865e-07
-1.48028e-06
3.58208e-07
-1.55053e-06
3.44251e-07
-1.61066e-06
3.26363e-07
-1.66322e-06
3.06067e-07
-1.71008e-06
2.84789e-07
-1.75301e-06
2.63602e-07
-1.79305e-06
2.43296e-07
-1.83106e-06
2.24402e-07
-1.86793e-06
2.07094e-07
-1.90394e-06
1.91531e-07
-1.93905e-06
1.77768e-07
-1.97328e-06
1.65651e-07
-2.00673e-06
1.54953e-07
-2.03936e-06
1.45512e-07
-2.07115e-06
1.37139e-07
-2.10205e-06
1.29662e-07
-2.13204e-06
1.22917e-07
-2.16107e-06
1.16768e-07
-2.18914e-06
1.11093e-07
-2.21621e-06
1.05798e-07
-2.24229e-06
1.00794e-07
-2.26733e-06
9.60221e-08
-2.29134e-06
9.14274e-08
-2.31427e-06
8.69762e-08
-2.33613e-06
8.26326e-08
-2.35687e-06
7.83787e-08
-2.37651e-06
7.41877e-08
-2.39502e-06
7.00544e-08
-2.4124e-06
6.59613e-08
-2.42863e-06
6.19075e-08
-2.44374e-06
5.78804e-08
-2.4577e-06
5.38825e-08
-2.47052e-06
4.99051e-08
-2.4822e-06
4.59494e-08
-2.49274e-06
4.20025e-08
-2.50212e-06
3.80753e-08
-2.51038e-06
3.4148e-08
-2.51758e-06
3.02436e-08
-2.5237e-06
2.63559e-08
-2.52874e-06
2.24779e-08
-2.53268e-06
1.86245e-08
-2.53553e-06
1.47885e-08
-2.5373e-06
1.09839e-08
-2.538e-06
7.20789e-09
-2.53765e-06
3.47531e-09
-2.53625e-06
-2.14009e-10
-2.53376e-06
-3.85408e-09
-2.53015e-06
-7.4631e-09
-2.52537e-06
-1.10605e-08
-2.51941e-06
-1.4644e-08
-2.51229e-06
-1.82163e-08
-2.50399e-06
-2.17724e-08
-2.49456e-06
-2.53268e-08
-2.48399e-06
-2.88662e-08
-2.4723e-06
-3.23985e-08
-2.45948e-06
-3.59049e-08
-2.44556e-06
-3.93925e-08
-2.43054e-06
-4.28442e-08
-2.41443e-06
-4.62688e-08
-2.39724e-06
-4.96526e-08
-2.379e-06
-5.30053e-08
-2.35971e-06
-5.63156e-08
-2.33938e-06
-5.95918e-08
-2.31802e-06
-6.28268e-08
-2.29564e-06
-6.60309e-08
-2.27225e-06
-6.92025e-08
-2.24785e-06
-7.23499e-08
-2.22242e-06
-7.54753e-08
-2.196e-06
-7.85823e-08
-2.16857e-06
-8.16749e-08
-2.14015e-06
-8.47552e-08
-2.11075e-06
-8.78267e-08
-2.08035e-06
-9.08871e-08
-2.04896e-06
-9.39401e-08
-2.01657e-06
-9.69816e-08
-1.98318e-06
-1.00015e-07
-1.94878e-06
-1.03034e-07
-1.91338e-06
-1.06039e-07
-1.87698e-06
-1.09021e-07
-1.83958e-06
-1.11976e-07
-1.80118e-06
-1.14898e-07
-1.76179e-06
-1.1778e-07
-1.72141e-06
-1.20614e-07
-1.68003e-06
-1.23391e-07
-1.63766e-06
-1.26111e-07
-1.59433e-06
-1.2879e-07
-1.5501e-06
-1.31434e-07
-1.50502e-06
-1.34025e-07
-1.45912e-06
-1.36562e-07
-1.41243e-06
-1.39039e-07
-1.36497e-06
-1.41451e-07
-1.31677e-06
-1.4378e-07
-1.26786e-06
-1.46017e-07
-1.21828e-06
-1.4815e-07
-1.16807e-06
-1.50174e-07
-1.11726e-06
-1.52082e-07
-1.0659e-06
-1.53877e-07
-1.01402e-06
-1.55537e-07
-9.61672e-07
-1.5708e-07
-9.08894e-07
-1.58484e-07
-8.55731e-07
-1.59746e-07
-8.02231e-07
-1.6086e-07
-7.4844e-07
-1.61817e-07
-6.94407e-07
-1.62627e-07
-6.40174e-07
-1.63297e-07
-5.85783e-07
-1.6384e-07
-5.31265e-07
-1.64273e-07
-4.76654e-07
-1.64611e-07
-4.21968e-07
-1.64873e-07
-3.6723e-07
-1.65076e-07
-3.12447e-07
-1.65231e-07
-2.57633e-07
-1.6535e-07
-2.02792e-07
-1.65429e-07
-1.47937e-07
-1.65474e-07
-9.30698e-08
-1.65483e-07
-3.81964e-08
-1.6547e-07
1.6686e-08
-1.6543e-07
7.15668e-08
-1.65361e-07
1.26436e-07
-1.6523e-07
1.81265e-07
-1.64983e-07
2.35996e-07
-1.64492e-07
2.90516e-07
-1.63548e-07
3.44653e-07
-1.61755e-07
3.98106e-07
-1.58491e-07
4.50491e-07
-1.52672e-07
5.0091e-07
-1.42178e-07
-1.1725e-07
5.52711e-07
-1.03827e-09
1.16038e-08
9.50796e-09
9.46919e-09
4.69627e-08
-3.08321e-08
1.07033e-07
-8.52117e-08
1.73056e-07
-1.30562e-07
2.31658e-07
-1.58121e-07
2.76639e-07
-1.6828e-07
3.08065e-07
-1.65734e-07
3.28785e-07
-1.55474e-07
3.42297e-07
-1.41136e-07
3.51227e-07
-1.24875e-07
3.57394e-07
-1.07838e-07
3.6165e-07
-9.05993e-08
3.64519e-07
-7.34538e-08
3.66083e-07
-5.65551e-08
3.66467e-07
-3.99984e-08
3.65621e-07
-2.38454e-08
3.63638e-07
-8.14886e-09
3.60536e-07
7.02967e-09
3.56479e-07
2.16547e-08
3.51621e-07
3.57288e-08
3.46235e-07
4.92289e-08
3.40528e-07
6.21171e-08
3.34607e-07
7.42831e-08
3.28369e-07
8.55016e-08
3.21397e-07
9.53676e-08
3.13025e-07
1.03205e-07
3.02376e-07
1.08039e-07
2.88816e-07
1.08648e-07
2.72143e-07
1.03766e-07
2.52944e-07
9.24839e-08
2.32378e-07
7.43482e-08
2.12112e-07
5.01541e-08
1.91753e-07
2.31922e-08
1.66604e-07
1.84666e-09
1.2971e-07
-5.13812e-09
8.03907e-08
3.46716e-09
2.07698e-08
2.44807e-08
-4.95481e-08
5.61232e-08
-1.33354e-07
9.56924e-08
-2.3207e-07
1.40039e-07
-3.45317e-07
1.86737e-07
-4.71758e-07
2.3376e-07
-6.07103e-07
2.79514e-07
-7.45096e-07
3.22674e-07
-8.79741e-07
3.61119e-07
-1.00548e-06
3.92157e-07
-1.11821e-06
4.14513e-07
-1.21627e-06
4.28406e-07
-1.29913e-06
4.34162e-07
-1.36749e-06
4.32615e-07
-1.42306e-06
4.24869e-07
-1.46812e-06
4.12053e-07
-1.50508e-06
3.95339e-07
-1.53656e-06
3.75871e-07
-1.56479e-06
3.54765e-07
-1.59161e-06
3.33028e-07
-1.61813e-06
3.11468e-07
-1.6451e-06
2.90696e-07
-1.67279e-06
2.71113e-07
-1.70126e-06
2.5297e-07
-1.73046e-06
2.36382e-07
-1.76021e-06
2.2135e-07
-1.79023e-06
2.07839e-07
-1.8203e-06
1.95748e-07
-1.85024e-06
1.84911e-07
-1.87988e-06
1.75161e-07
-1.90909e-06
1.66344e-07
-1.93774e-06
1.58308e-07
-1.96574e-06
1.50913e-07
-1.99301e-06
1.44036e-07
-2.0195e-06
1.37571e-07
-2.04513e-06
1.31429e-07
-2.06989e-06
1.25537e-07
-2.09371e-06
1.19837e-07
-2.11658e-06
1.1428e-07
-2.13846e-06
1.08836e-07
-2.15932e-06
1.03476e-07
-2.17914e-06
9.81827e-08
-2.19791e-06
9.29391e-08
-2.2156e-06
8.77372e-08
-2.2322e-06
8.25684e-08
-2.24772e-06
7.74291e-08
-2.26214e-06
7.23146e-08
-2.27547e-06
6.72245e-08
-2.2877e-06
6.21552e-08
-2.29884e-06
5.71053e-08
-2.30887e-06
5.20736e-08
-2.31781e-06
4.70477e-08
-2.32565e-06
4.20588e-08
-2.33246e-06
3.70674e-08
-2.33822e-06
3.21049e-08
-2.34292e-06
2.71576e-08
-2.34655e-06
2.22372e-08
-2.34911e-06
1.73389e-08
-2.35059e-06
1.24725e-08
-2.351e-06
7.63486e-09
-2.35033e-06
2.83282e-09
-2.34856e-06
-1.93836e-09
-2.34567e-06
-6.67999e-09
-2.34165e-06
-1.14021e-08
-2.33649e-06
-1.6115e-08
-2.33019e-06
-2.08156e-08
-2.32276e-06
-2.55079e-08
-2.31421e-06
-3.01865e-08
-2.30456e-06
-3.48601e-08
-2.2938e-06
-3.95145e-08
-2.28195e-06
-4.41547e-08
-2.26902e-06
-4.87605e-08
-2.25501e-06
-5.3339e-08
-2.23994e-06
-5.78695e-08
-2.22381e-06
-6.2364e-08
-2.20665e-06
-6.68027e-08
-2.18845e-06
-7.12015e-08
-2.16924e-06
-7.55416e-08
-2.14902e-06
-7.98412e-08
-2.12781e-06
-8.40871e-08
-2.10561e-06