/*--------------------------------*- C++ -*----------------------------------*\
  =========                 |
  \\      /  F ield         | OpenFOAM: The Open Source CFD Toolbox
   \\    /   O peration     | Website:  https://openfoam.org
    \\  /    A nd           | Version:  13
     \\/     M anipulation  |
\*---------------------------------------------------------------------------*/
FoamFile
{
    format      ascii;
    class       volVectorField;
    location    "1000";
    object      U;
}
// * * * * * * * * * * * * * * * * * * * * * * * * * * * * * * * * * * * * * //

dimensions      [0 1 -1 0 0 0 0];

internalField   nonuniform List<vector> 
12225
(
(9.75754 0.0455179 0)
(9.30799 0.110901 0)
(8.81835 0.13617 0)
(8.35837 0.1143 0)
(7.95772 0.0833799 0)
(7.61655 0.0637609 0)
(7.32287 0.0558843 0)
(7.06905 0.0457912 0)
(6.8458 0.0338275 0)
(6.66096 0.0316055 0)
(6.51086 0.050393 0)
(6.38325 0.0503601 0)
(6.27706 0.0347005 0)
(6.19281 0.0289929 0)
(6.12816 0.0100343 0)
(6.0856 -0.0139818 0)
(6.05808 -0.0305237 0)
(6.05121 -0.0304791 0)
(10.109 0.0576959 0)
(10.2884 0.0903153 0)
(10.4018 0.0920087 0)
(10.4446 0.0947253 0)
(10.4482 0.0963807 0)
(10.4256 0.0933126 0)
(10.3751 0.0876859 0)
(10.3032 0.082766 0)
(10.225 0.0777327 0)
(10.1379 0.0701329 0)
(10.0428 0.0582475 0)
(9.92488 0.0510618 0)
(9.82284 0.0491741 0)
(9.71669 0.0457179 0)
(9.61584 0.0435382 0)
(9.52643 0.040977 0)
(9.45226 0.0346783 0)
(9.38265 0.0206534 0)
(10.0039 0.0411768 0)
(10.059 0.0690717 0)
(10.1072 0.0754891 0)
(10.1587 0.0774698 0)
(10.2069 0.0799339 0)
(10.2519 0.0829597 0)
(10.2913 0.0845302 0)
(10.324 0.0844978 0)
(10.3494 0.0829695 0)
(10.368 0.0800508 0)
(10.3825 0.0801136 0)
(10.3938 0.0791388 0)
(10.4002 0.0743569 0)
(10.402 0.0694302 0)
(10.3995 0.0628647 0)
(10.392 0.0548898 0)
(10.3801 0.0458355 0)
(10.3635 0.0354095 0)
(10.0043 0.0301123 0)
(10.0308 0.0587906 0)
(10.0601 0.0663755 0)
(10.0829 0.0701521 0)
(10.1001 0.0716978 0)
(10.117 0.0721232 0)
(10.1344 0.0717154 0)
(10.1513 0.0704908 0)
(10.1674 0.0685695 0)
(10.1822 0.0663183 0)
(10.197 0.0653198 0)
(10.2127 0.0631929 0)
(10.2277 0.0596368 0)
(10.2416 0.0561718 0)
(10.2546 0.0511846 0)
(10.2656 0.0448622 0)
(10.2729 0.037839 0)
(10.2785 0.0312542 0)
(10.004 0.0245677 0)
(10.0242 0.0551919 0)
(10.0524 0.0658282 0)
(10.0715 0.0694879 0)
(10.0846 0.070724 0)
(10.0964 0.0710816 0)
(10.1077 0.0706336 0)
(10.118 0.0695172 0)
(10.1276 0.0679337 0)
(10.1363 0.0660065 0)
(10.1447 0.064697 0)
(10.1538 0.0627706 0)
(10.1627 0.0596502 0)
(10.1711 0.0560815 0)
(10.179 0.0514212 0)
(10.1856 0.0456649 0)
(10.1899 0.0392655 0)
(10.1928 0.0337594 0)
(10.0035 0.0206845 0)
(10.0213 0.0486574 0)
(10.045 0.0579565 0)
(10.0624 0.0620056 0)
(10.0752 0.064397 0)
(10.0865 0.0656816 0)
(10.0975 0.065746 0)
(10.1073 0.064883 0)
(10.1163 0.0634548 0)
(10.1244 0.0616221 0)
(10.1321 0.0599526 0)
(10.14 0.0577829 0)
(10.1475 0.0546833 0)
(10.1545 0.0510128 0)
(10.1608 0.0465368 0)
(10.166 0.0413217 0)
(10.1692 0.0357504 0)
(10.1712 0.0310967 0)
(10.0024 0.0168879 0)
(10.0202 0.0422678 0)
(10.0366 0.0530898 0)
(10.0502 0.0580935 0)
(10.0629 0.0608182 0)
(10.0742 0.0622431 0)
(10.0851 0.0623738 0)
(10.095 0.0615806 0)
(10.104 0.0602573 0)
(10.1123 0.0585587 0)
(10.1201 0.0567799 0)
(10.1277 0.0545657 0)
(10.1349 0.0516541 0)
(10.1416 0.0482177 0)
(10.1474 0.0441998 0)
(10.1522 0.0396871 0)
(10.1554 0.0349867 0)
(10.1577 0.0310428 0)
(10.0016 0.013871 0)
(10.0139 0.037011 0)
(10.0299 0.0482033 0)
(10.0441 0.0528991 0)
(10.0559 0.0557801 0)
(10.0665 0.0574661 0)
(10.0767 0.0578538 0)
(10.0862 0.0573131 0)
(10.0948 0.0562155 0)
(10.1028 0.0547073 0)
(10.1104 0.0529528 0)
(10.1176 0.0507781 0)
(10.1245 0.0480359 0)
(10.1307 0.044812 0)
(10.1361 0.041134 0)
(10.1406 0.0371207 0)
(10.1439 0.0330304 0)
(10.1466 0.0294996 0)
(10.0011 0.0118039 0)
(10.0103 0.0316737 0)
(10.0245 0.0425491 0)
(10.0383 0.0483444 0)
(10.0497 0.0515974 0)
(10.0601 0.0534474 0)
(10.0699 0.0539592 0)
(10.079 0.0535326 0)
(10.0874 0.0525132 0)
(10.0952 0.0510715 0)
(10.1025 0.0493146 0)
(10.1094 0.0471701 0)
(10.1159 0.0445555 0)
(10.1217 0.041538 0)
(10.1269 0.0381813 0)
(10.1313 0.0346058 0)
(10.1347 0.0310113 0)
(10.1376 0.0278135 0)
(10.0009 0.00985931 0)
(10.0084 0.0276804 0)
(10.0203 0.0380528 0)
(10.0328 0.0436912 0)
(10.0439 0.047077 0)
(10.054 0.0490252 0)
(10.0636 0.04971 0)
(10.0726 0.049444 0)
(10.0808 0.0485525 0)
(10.0884 0.0472124 0)
(10.0955 0.0455172 0)
(10.1022 0.0434538 0)
(10.1084 0.0409946 0)
(10.114 0.0382002 0)
(10.119 0.035141 0)
(10.1233 0.0319308 0)
(10.1268 0.0287388 0)
(10.1298 0.0258227 0)
(10.0007 0.00834429 0)
(10.0068 0.0237591 0)
(10.0169 0.0332519 0)
(10.0281 0.0388532 0)
(10.0385 0.0422758 0)
(10.0483 0.0442905 0)
(10.0576 0.0451231 0)
(10.0664 0.0450313 0)
(10.0745 0.0442994 0)
(10.082 0.0430962 0)
(10.089 0.041516 0)
(10.0955 0.0395763 0)
(10.1015 0.0372938 0)
(10.1069 0.0347291 0)
(10.1118 0.0319559 0)
(10.116 0.0290808 0)
(10.1195 0.0262285 0)
(10.1227 0.0235622 0)
(10.0006 0.0071113 0)
(10.0056 0.0204831 0)
(10.0143 0.0290526 0)
(10.0243 0.0344296 0)
(10.034 0.0378118 0)
(10.0433 0.0398379 0)
(10.0523 0.0407503 0)
(10.0608 0.0407839 0)
(10.0688 0.0401818 0)
(10.0761 0.0391063 0)
(10.083 0.0376454 0)
(10.0894 0.0358427 0)
(10.0952 0.03374 0)
(10.1006 0.0313944 0)
(10.1053 0.0288867 0)
(10.1095 0.0263006 0)
(10.1132 0.0237351 0)
(10.1164 0.02129 0)
(10.0005 0.00603376 0)
(10.0047 0.0176388 0)
(10.0122 0.0252417 0)
(10.0212 0.0302338 0)
(10.0302 0.0334373 0)
(10.0389 0.0353811 0)
(10.0474 0.0363115 0)
(10.0556 0.0364302 0)
(10.0633 0.0359448 0)
(10.0705 0.0349956 0)
(10.0772 0.0336717 0)
(10.0834 0.0320221 0)
(10.0892 0.0300995 0)
(10.0944 0.0279623 0)
(10.0991 0.0256857 0)
(10.1033 0.0233489 0)
(10.1069 0.0210267 0)
(10.1103 0.0187928 0)
(10.0004 0.00496197 0)
(10.004 0.0146834 0)
(10.0103 0.0211741 0)
(10.0182 0.0256275 0)
(10.0263 0.0285412 0)
(10.0345 0.0303252 0)
(10.0424 0.0312082 0)
(10.0501 0.0313659 0)
(10.0575 0.0309612 0)
(10.0644 0.0301288 0)
(10.0709 0.0289418 0)
(10.0769 0.0274696 0)
(10.0825 0.0257509 0)
(10.0875 0.0238601 0)
(10.0921 0.0218457 0)
(10.0963 0.0197898 0)
(10.0999 0.0177285 0)
(10.1033 0.0157395 0)
(10.0004 0.00389547 0)
(10.0033 0.0116512 0)
(10.0086 0.0168934 0)
(10.0154 0.0206391 0)
(10.0228 0.0231345 0)
(10.0302 0.0246623 0)
(10.0376 0.025427 0)
(10.0448 0.0255654 0)
(10.0517 0.0252139 0)
(10.0583 0.024475 0)
(10.0644 0.0234311 0)
(10.0702 0.0221354 0)
(10.0755 0.0206465 0)
(10.0804 0.0190064 0)
(10.0849 0.0172804 0)
(10.0889 0.0155046 0)
(10.0925 0.0137352 0)
(10.0959 0.0120006 0)
(10.0003 0.00282835 0)
(10.0027 0.00858057 0)
(10.0072 0.0124399 0)
(10.0131 0.0152848 0)
(10.0196 0.0172044 0)
(10.0263 0.0183617 0)
(10.0331 0.0189192 0)
(10.0398 0.0189768 0)
(10.0463 0.0186375 0)
(10.0525 0.0179752 0)
(10.0583 0.0170693 0)
(10.0638 0.0159587 0)
(10.0688 0.0146998 0)
(10.0735 0.0133261 0)
(10.0778 0.011886 0)
(10.0817 0.0104103 0)
(10.0853 0.0089292 0)
(10.0886 0.00748438 0)
(10.0002 0.00175632 0)
(10.0023 0.00546181 0)
(10.0061 0.00780019 0)
(10.0112 0.00954491 0)
(10.017 0.0107071 0)
(10.0232 0.0113612 0)
(10.0294 0.0116048 0)
(10.0356 0.0115103 0)
(10.0417 0.0111295 0)
(10.0475 0.0105306 0)
(10.053 0.00974545 0)
(10.0582 0.00882955 0)
(10.063 0.00779976 0)
(10.0675 0.00670271 0)
(10.0716 0.00555033 0)
(10.0754 0.00438284 0)
(10.0789 0.00320103 0)
(10.0821 0.00205736 0)
(10.0002 0.000642844 0)
(10.002 0.00221364 0)
(10.0053 0.00285089 0)
(10.0099 0.00328643 0)
(10.0153 0.00349954 0)
(10.021 0.00349387 0)
(10.0268 0.00330802 0)
(10.0327 0.0029699 0)
(10.0384 0.00250068 0)
(10.044 0.00192474 0)
(10.0492 0.00126126 0)
(10.0542 0.000530092 0)
(10.0588 -0.000254476 0)
(10.0631 -0.00107554 0)
(10.0671 -0.00192031 0)
(10.0708 -0.00277445 0)
(10.0742 -0.00363163 0)
(10.0773 -0.00445955 0)
(10.0002 -0.000597881 0)
(10.0019 -0.00140858 0)
(10.0051 -0.00272564 0)
(10.0096 -0.00382607 0)
(10.0148 -0.00474724 0)
(10.0204 -0.00555119 0)
(10.0261 -0.00627141 0)
(10.0318 -0.00691739 0)
(10.0374 -0.00751851 0)
(10.0428 -0.0080815 0)
(10.048 -0.00862812 0)
(10.0528 -0.00916082 0)
(10.0573 -0.00969024 0)
(10.0616 -0.0102158 0)
(10.0655 -0.0107399 0)
(10.0691 -0.011261 0)
(10.0724 -0.0117801 0)
(10.0755 -0.0122714 0)
(10.0002 -0.00183396 0)
(10.0021 -0.00500023 0)
(10.0057 -0.008251 0)
(10.0106 -0.0108262 0)
(10.0162 -0.0128026 0)
(10.0221 -0.0143422 0)
(10.0281 -0.0155264 0)
(10.0341 -0.0164321 0)
(10.0398 -0.0171077 0)
(10.0454 -0.0176269 0)
(10.0506 -0.0180242 0)
(10.0555 -0.0183478 0)
(10.06 -0.0186145 0)
(10.0643 -0.0188533 0)
(10.0682 -0.0190714 0)
(10.0718 -0.0192835 0)
(10.0751 -0.0194939 0)
(10.0782 -0.0196819 0)
(10.0003 -0.00300364 0)
(10.0025 -0.00831262 0)
(10.0068 -0.0132608 0)
(10.0125 -0.0170362 0)
(10.0188 -0.0198085 0)
(10.0252 -0.0218724 0)
(10.0317 -0.0233586 0)
(10.038 -0.0243823 0)
(10.0441 -0.0250382 0)
(10.0499 -0.025438 0)
(10.0552 -0.0256486 0)
(10.0603 -0.0257425 0)
(10.0649 -0.0257543 0)
(10.0692 -0.0257262 0)
(10.0731 -0.0256769 0)
(10.0768 -0.0256258 0)
(10.0801 -0.0255827 0)
(10.0831 -0.0255268 0)
(10.0004 -0.00428272 0)
(10.0032 -0.0118319 0)
(10.0086 -0.0184332 0)
(10.0154 -0.0232031 0)
(10.0225 -0.0266052 0)
(10.0297 -0.0290492 0)
(10.0367 -0.0307323 0)
(10.0436 -0.0317732 0)
(10.05 -0.032334 0)
(10.0561 -0.032546 0)
(10.0617 -0.0325231 0)
(10.0668 -0.0323401 0)
(10.0715 -0.0320675 0)
(10.0758 -0.031753 0)
(10.0797 -0.0314301 0)
(10.0833 -0.031123 0)
(10.0866 -0.0308432 0)
(10.0896 -0.0305743 0)
(10.0005 -0.00573522 0)
(10.0042 -0.0158138 0)
(10.0112 -0.0240077 0)
(10.0194 -0.0295117 0)
(10.0275 -0.0333447 0)
(10.0354 -0.0360401 0)
(10.0431 -0.0377745 0)
(10.0504 -0.0387175 0)
(10.0572 -0.0390766 0)
(10.0635 -0.0390252 0)
(10.0692 -0.0386942 0)
(10.0744 -0.0381855 0)
(10.0791 -0.0375876 0)
(10.0833 -0.0369606 0)
(10.0872 -0.0363465 0)
(10.0906 -0.0357713 0)
(10.0938 -0.0352536 0)
(10.0967 -0.0347618 0)
(10.0007 -0.00746496 0)
(10.0058 -0.0205097 0)
(10.015 -0.0299761 0)
(10.0247 -0.0358644 0)
(10.0336 -0.0399745 0)
(10.042 -0.0428078 0)
(10.0502 -0.04447 0)
(10.0579 -0.0451916 0)
(10.065 -0.0452573 0)
(10.0714 -0.0448847 0)
(10.0773 -0.0442121 0)
(10.0825 -0.043369 0)
(10.0872 -0.0424464 0)
(10.0914 -0.0415187 0)
(10.0951 -0.0406312 0)
(10.0985 -0.039815 0)
(10.1016 -0.039108 0)
(10.1043 -0.0384185 0)
(10.001 -0.00971177 0)
(10.0085 -0.0260394 0)
(10.0201 -0.0357661 0)
(10.0308 -0.0414877 0)
(10.0402 -0.0456023 0)
(10.0492 -0.0484631 0)
(10.0579 -0.0500561 0)
(10.0661 -0.0506535 0)
(10.0735 -0.0505413 0)
(10.0802 -0.0499332 0)
(10.0862 -0.0489839 0)
(10.0915 -0.0478302 0)
(10.0962 -0.0466012 0)
(10.1003 -0.045384 0)
(10.104 -0.044221 0)
(10.1073 -0.0431479 0)
(10.1102 -0.0422126 0)
(10.1128 -0.0412967 0)
(10.0016 -0.0125061 0)
(10.0124 -0.0317835 0)
(10.0269 -0.0418739 0)
(10.0381 -0.0476957 0)
(10.0483 -0.0517401 0)
(10.0578 -0.054219 0)
(10.0671 -0.0552473 0)
(10.0758 -0.0553103 0)
(10.0835 -0.0547594 0)
(10.0905 -0.0537765 0)
(10.0967 -0.0524917 0)
(10.1022 -0.0510621 0)
(10.107 -0.0496091 0)
(10.1112 -0.0482221 0)
(10.1149 -0.0469631 0)
(10.1182 -0.0458501 0)
(10.1212 -0.0449023 0)
(10.1239 -0.0439495 0)
(10.0025 -0.0167241 0)
(10.0177 -0.0359946 0)
(10.0341 -0.044659 0)
(10.0485 -0.0518514 0)
(10.06 -0.057352 0)
(10.0711 -0.0604323 0)
(10.0821 -0.0616172 0)
(10.0922 -0.0614739 0)
(10.1015 -0.0604684 0)
(10.1103 -0.058856 0)
(10.1183 -0.0568468 0)
(10.1257 -0.0546806 0)
(10.1325 -0.0525548 0)
(10.1386 -0.0505785 0)
(10.1443 -0.0488243 0)
(10.1494 -0.0473124 0)
(10.1543 -0.04609 0)
(10.1587 -0.0448762 0)
(10.0028 -0.026383 0)
(10.0357 -0.0451494 0)
(10.0565 -0.0509731 0)
(10.0846 -0.0548192 0)
(10.1117 -0.0594196 0)
(10.1393 -0.0629471 0)
(10.1671 -0.0650671 0)
(10.1934 -0.0661455 0)
(10.2177 -0.066364 0)
(10.2396 -0.0657252 0)
(10.2591 -0.0644301 0)
(10.2761 -0.0627261 0)
(10.2906 -0.0608662 0)
(10.3028 -0.0589892 0)
(10.3128 -0.0572224 0)
(10.3208 -0.0557146 0)
(10.3272 -0.0544942 0)
(10.332 -0.0535566 0)
(10.054 -0.0402226 0)
(10.1791 -0.067585 0)
(10.2826 -0.07624 0)
(10.3457 -0.0797896 0)
(10.391 -0.0819704 0)
(10.421 -0.0828115 0)
(10.4338 -0.08218 0)
(10.4341 -0.0804127 0)
(10.4241 -0.0778838 0)
(10.407 -0.0747997 0)
(10.3821 -0.0711928 0)
(10.3522 -0.0672877 0)
(10.3174 -0.0634821 0)
(10.2793 -0.0598666 0)
(10.2388 -0.0565061 0)
(10.1971 -0.0535067 0)
(10.155 -0.0509354 0)
(10.1138 -0.0491915 0)
(9.86878 -0.0353141 0)
(9.59318 -0.0779012 0)
(9.30486 -0.0917753 0)
(9.00748 -0.0946535 0)
(8.72231 -0.0933152 0)
(8.45679 -0.0886248 0)
(8.21581 -0.0818583 0)
(7.99664 -0.074152 0)
(7.79988 -0.066204 0)
(7.62391 -0.0580698 0)
(7.47121 -0.0499691 0)
(7.33857 -0.0421421 0)
(7.22549 -0.0348094 0)
(7.12881 -0.0282589 0)
(7.04678 -0.0225318 0)
(6.97668 -0.0177775 0)
(6.91566 -0.0139789 0)
(6.86308 -0.0113113 0)
(-0.00292757 0.00661684 -7.95396e-19)
(-0.0123627 0.0116862 9.32425e-19)
(-0.0256919 0.0125326 -6.49601e-19)
(-0.0396421 0.0105067 -1.98848e-19)
(-0.0508353 0.00507615 3.05793e-19)
(-0.0520794 -0.00389811 -7.60736e-20)
(-0.0384736 -0.0160388 -7.49961e-20)
(-0.0134744 -0.0287927 3.99635e-19)
(0.0201932 -0.0388289 -1.99876e-19)
(0.0594112 -0.04425 4.65902e-20)
(0.101395 -0.0451442 1.48423e-20)
(0.142953 -0.0427294 -1.5835e-19)
(0.181284 -0.0380575 2.18893e-19)
(0.214593 -0.0318949 2.21989e-19)
(0.241936 -0.0248022 1.89881e-20)
(0.262818 -0.017134 7.97146e-20)
(0.276938 -0.00909997 3.12825e-20)
(0.284227 -0.000701273 5.43576e-20)
(0.284232 0.00805508 8.09602e-20)
(0.276427 0.0168497 8.74282e-21)
(0.261381 0.0250488 -2.97772e-20)
(0.239608 0.0318875 2.53552e-19)
(0.211861 0.0366139 -3.40344e-20)
(0.179263 0.0385359 2.98912e-19)
(0.143442 0.0370715 -6.93922e-20)
(0.106477 0.031901 3.06382e-19)
(0.0708439 0.0232702 1.86424e-19)
(0.0392204 0.0123725 1.5292e-19)
(0.0140564 0.00191458 -7.97533e-19)
(-0.00351051 -0.0047068 -1.68652e-19)
(-0.0151695 -0.00719916 -1.05523e-18)
(-0.022246 -0.00820106 5.79019e-19)
(-0.024915 -0.00967193 4.14578e-19)
(-0.0218492 -0.0126717 -5.0745e-19)
(-0.0123414 -0.0173966 -8.23158e-19)
(0.00540497 -0.0239497 -5.33557e-20)
(0.0306781 -0.0303715 2.269e-19)
(0.061179 -0.0340272 3.98151e-19)
(0.0921991 -0.0328547 2.17841e-19)
(0.11877 -0.027346 4.30054e-19)
(0.137306 -0.0193744 1.56163e-19)
(0.146736 -0.0113428 3.97916e-20)
(0.148529 -0.00509539 -5.31033e-19)
(0.145265 -0.00168705 -1.09522e-19)
(0.140393 -0.00180391 2.29016e-19)
(0.136035 -0.00630715 1.19632e-20)
(0.13069 -0.0150168 5.62307e-19)
(0.119067 -0.0232244 1.855e-19)
(0.0949747 -0.0212854 8.07713e-20)
(0.0532366 -0.00380923 -7.78256e-19)
(-0.0198536 0.013862 5.50833e-19)
(-0.114313 0.0307388 3.02478e-20)
(-0.216561 0.0534439 2.73229e-19)
(-0.329564 0.0779488 1.59403e-19)
(-0.451791 0.097952 5.03359e-20)
(-0.580228 0.109524 1.01295e-19)
(-0.711256 0.112486 1.22462e-19)
(-0.840427 0.111453 -1.22445e-19)
(-0.964781 0.107371 4.53912e-20)
(-1.08372 0.103161 4.83256e-20)
(-1.19561 0.0967914 -1.10672e-19)
(-1.30003 0.0866032 -6.99541e-20)
(-1.39625 0.0773579 5.27862e-20)
(-1.48437 0.0711304 6.1571e-20)
(-1.56596 0.0659361 1.69155e-20)
(-1.64165 0.0602954 -6.40295e-20)
(-1.71162 0.0553424 6.9624e-21)
(-1.77666 0.0510205 3.26716e-21)
(-1.83733 0.0472049 1.6199e-20)
(-1.89419 0.0438736 7.87178e-20)
(-1.94766 0.0409339 -3.90397e-21)
(-1.99816 0.0383238 -5.64934e-20)
(-2.04598 0.0359963 6.07048e-20)
(-2.09142 0.0338762 2.20763e-20)
(-2.13465 0.0319583 -3.56657e-20)
(-2.17588 0.0301669 2.96087e-20)
(-2.21521 0.0285191 -4.55347e-21)
(-2.25273 0.0269523 5.70257e-20)
(-2.28851 0.0254957 2.62637e-20)
(-2.32261 0.0240828 -3.87805e-20)
(-2.3551 0.022751 -1.10781e-20)
(-2.386 0.0214485 2.19211e-21)
(-2.41535 0.0202093 4.35537e-20)
(-2.44317 0.0189839 5.40685e-20)
(-2.46951 0.0178045 4.75906e-20)
(-2.49437 0.0166348 -4.82858e-20)
(-2.51778 0.0154966 1.02671e-19)
(-2.53973 0.0143622 -4.07361e-21)
(-2.56023 0.0132514 7.34835e-20)
(-2.57928 0.0121421 -1.03992e-19)
(-2.59696 0.0110547 -5.57154e-20)
(-2.61329 0.00996239 4.67768e-20)
(-2.62825 0.00887502 6.79185e-20)
(-2.64179 0.00777983 -1.02862e-20)
(-2.65387 0.00667731 -6.36075e-20)
(-2.66446 0.0055554 -6.30402e-20)
(-2.67351 0.00441242 6.45334e-20)
(-2.68097 0.00324419 -3.46924e-20)
(-2.6868 0.00206986 -8.25729e-20)
(-2.69096 0.000947608 -3.59028e-20)
(-2.69341 -1.45409e-05 8.83938e-20)
(-2.69443 -0.000790442 4.42884e-20)
(-2.69424 -0.00147524 6.60501e-20)
(-2.69282 -0.00212106 -4.02934e-20)
(-2.69023 -0.0027537 1.28044e-20)
(-2.6865 -0.00336696 4.43711e-21)
(-2.68164 -0.00397805 -8.11362e-21)
(-2.67566 -0.00456857 -1.75292e-20)
(-2.66858 -0.0051558 -2.62438e-20)
(-2.6604 -0.00571831 -4.25525e-20)
(-2.65112 -0.00627548 -5.80877e-20)
(-2.64075 -0.00680549 3.06306e-20)
(-2.6293 -0.00732927 -4.25732e-20)
(-2.61677 -0.00782558 -4.14575e-20)
(-2.60318 -0.00831544 7.27188e-20)
(-2.58853 -0.0087788 -4.27582e-21)
(-2.57283 -0.00923547 -4.61975e-20)
(-2.55609 -0.00966972 -4.79165e-20)
(-2.53832 -0.0101005 4.40062e-20)
(-2.51952 -0.0105167 3.27529e-21)
(-2.49967 -0.0109296 1.30846e-20)
(-2.47877 -0.0113317 -8.52396e-21)
(-2.45683 -0.0117291 -2.47865e-20)
(-2.43386 -0.0121202 2.08514e-20)
(-2.40988 -0.0125085 -1.83097e-20)
(-2.38487 -0.0128959 1.64599e-20)
(-2.35883 -0.0132812 2.21502e-20)
(-2.33175 -0.0136722 -7.80226e-21)
(-2.30361 -0.014063 2.1417e-20)
(-2.27442 -0.0144667 -1.86078e-20)
(-2.24415 -0.0148659 4.41231e-20)
(-2.21282 -0.015264 -3.74738e-21)
(-2.18041 -0.0156378 -4.41123e-20)
(-2.14693 -0.0160131 1.00027e-20)
(-2.11238 -0.0163432 -2.24492e-21)
(-2.07678 -0.0165923 1.02517e-20)
(-2.04018 -0.0166699 1.03205e-20)
(-2.00261 -0.0165404 -5.27506e-21)
(-1.96405 -0.0164806 -1.92518e-22)
(-1.92441 -0.0167698 -4.33997e-22)
(-1.88371 -0.0171689 1.60472e-20)
(-1.84204 -0.0175435 2.00696e-20)
(-1.79946 -0.0179235 -1.32909e-20)
(-1.75599 -0.0183063 -1.65305e-20)
(-1.71164 -0.0186859 -3.28627e-20)
(-1.66643 -0.0190634 -5.19405e-20)
(-1.6204 -0.019434 -4.18288e-20)
(-1.57356 -0.0197965 -7.1494e-20)
(-1.52594 -0.020152 3.70059e-20)
(-1.4776 -0.0204936 3.58219e-20)
(-1.42854 -0.0208267 6.39806e-20)
(-1.37879 -0.0211526 4.90003e-20)
(-1.32842 -0.0214504 1.43088e-19)
(-1.27743 -0.0217416 9.92383e-21)
(-1.22591 -0.0220091 6.50551e-21)
(-1.17387 -0.0222608 -1.15731e-19)
(-1.12138 -0.0224966 1.86691e-19)
(-1.06846 -0.0227147 -1.12908e-19)
(-1.01518 -0.0229214 1.59591e-20)
(-0.961549 -0.0231162 5.86208e-20)
(-0.907609 -0.0233049 2.16976e-20)
(-0.853381 -0.0234876 5.59852e-20)
(-0.798883 -0.02367 2.68265e-19)
(-0.744127 -0.0238517 1.33697e-19)
(-0.689124 -0.0240369 6.377e-20)
(-0.633886 -0.0242245 9.11637e-20)
(-0.578423 -0.0244178 2.59683e-19)
(-0.522747 -0.0246181 -1.14605e-20)
(-0.466868 -0.0248291 3.04291e-19)
(-0.410795 -0.0250523 4.42595e-19)
(-0.354538 -0.0252893 4.34012e-19)
(-0.298112 -0.0255382 -1.59272e-20)
(-0.241554 -0.0257993 4.15712e-20)
(-0.184928 -0.0260722 -9.91332e-20)
(-0.128377 -0.0263 -1.2544e-18)
(-0.0722247 -0.0263475 6.26943e-19)
(-0.0167134 -0.0259147 4.61832e-19)
(0.034908 -0.0242335 -8.85215e-19)
(0.0920457 -0.0212257 -8.02966e-19)
(0.108115 -0.00927313 1.17595e-18)
(-0.000668016 0.0185907 2.23344e-18)
(-0.00728381 0.0369516 -1.74606e-18)
(-0.0147855 0.037362 -7.31412e-19)
(-0.0175694 0.0292619 2.04143e-18)
(-0.00637816 0.00912927 4.51385e-19)
(0.0223058 -0.0267041 2.03474e-19)
(0.0604573 -0.0673101 -1.26227e-19)
(0.103967 -0.100993 -4.60065e-19)
(0.149513 -0.122652 -2.57186e-20)
(0.193653 -0.131527 -3.24221e-19)
(0.234114 -0.12977 1.71301e-20)
(0.269869 -0.120489 -4.45169e-21)
(0.300482 -0.106469 9.8164e-20)
(0.325879 -0.0897844 1.40328e-20)
(0.346228 -0.0718363 -3.03684e-20)
(0.361801 -0.0534448 -2.53862e-19)
(0.372946 -0.035049 -5.46939e-20)
(0.379908 -0.0168036 2.39779e-19)
(0.383326 0.00124481 -2.80557e-19)
(0.38355 0.0190809 7.83266e-20)
(0.380268 0.0364971 7.10564e-21)
(0.373034 0.0530401 1.55968e-19)
(0.361303 0.0681132 1.84401e-19)
(0.344492 0.0808196 1.61934e-19)
(0.322199 0.0900604 2.19265e-19)
(0.294311 0.0946218 -1.3201e-19)
(0.261279 0.0934522 3.58081e-20)
(0.224264 0.0860815 5.01814e-20)
(0.185261 0.0730978 -2.21298e-19)
(0.147044 0.0561544 -1.83869e-19)
(0.112899 0.037206 -3.65478e-19)
(0.0863189 0.0176849 -1.40731e-19)
(0.0705881 -0.00198481 -1.2899e-18)
(0.0668601 -0.0217949 5.58729e-19)
(0.0753321 -0.0414405 -6.99537e-19)
(0.0931185 -0.0610974 6.7781e-19)
(0.115351 -0.0760408 -5.27383e-19)
(0.13561 -0.0794816 1.20964e-19)
(0.149228 -0.0698881 2.7208e-19)
(0.154612 -0.0516323 -2.05256e-19)
(0.151769 -0.0304623 1.80951e-19)
(0.14144 -0.0118915 -8.06237e-20)
(0.124621 0.000375685 -3.46699e-19)
(0.100958 0.00752092 -1.14199e-18)
(0.0648998 0.0144702 -9.53506e-19)
(0.00771454 0.0282928 1.23307e-20)
(-0.0807676 0.0571266 -9.7144e-19)
(-0.194918 0.0961673 -1.71171e-19)
(-0.321855 0.137924 4.26172e-19)
(-0.454658 0.178598 4.91794e-19)
(-0.593478 0.213113 9.40345e-20)
(-0.734149 0.239338 -3.42602e-20)
(-0.87311 0.257512 -3.11118e-20)
(-1.00847 0.267465 -9.05111e-20)
(-1.13708 0.269481 -6.41959e-20)
(-1.25629 0.264649 -1.57747e-19)
(-1.36449 0.254359 -1.76222e-19)
(-1.46138 0.24036 -3.80373e-20)
(-1.54788 0.223771 2.45248e-20)
(-1.62394 0.206367 -1.20805e-19)
(-1.69162 0.18924 9.07637e-20)
(-1.75219 0.172646 -3.85183e-20)
(-1.80701 0.157311 -1.51676e-19)
(-1.85718 0.143456 1.15452e-20)
(-1.90334 0.131147 1.07816e-19)
(-1.94615 0.120312 -4.12299e-20)
(-1.98631 0.11084 4.53628e-21)
(-2.02425 0.102587 -9.46918e-20)
(-2.06025 0.0953796 3.25133e-20)
(-2.09457 0.0890387 -5.53705e-20)
(-2.12734 0.0834363 9.9001e-22)
(-2.15871 0.0784115 -6.82333e-20)
(-2.18876 0.0738894 2.19739e-21)
(-2.21757 0.0697341 -4.04617e-20)
(-2.24518 0.0659198 5.36213e-20)
(-2.27164 0.0623346 -9.26047e-20)
(-2.29696 0.0589876 1.20687e-20)
(-2.32114 0.0557924 -9.3739e-20)
(-2.34419 0.0527712 3.69532e-21)
(-2.3661 0.0498445 7.41614e-20)
(-2.3869 0.0470474 1.45683e-20)
(-2.40657 0.0443196 -4.36074e-20)
(-2.42513 0.0416958 -6.52937e-20)
(-2.44257 0.0391221 3.74719e-20)
(-2.4589 0.036632 1.05706e-19)
(-2.47411 0.0341839 -3.34833e-20)
(-2.48822 0.0317989 -1.09815e-21)
(-2.5012 0.0294464 -2.82447e-21)
(-2.51307 0.0271374 6.77494e-20)
(-2.52382 0.0248675 2.3756e-19)
(-2.53351 0.0226371 5.17094e-20)
(-2.54218 0.0204367 9.69831e-20)
(-2.5498 0.0182759 -2.10224e-19)
(-2.55636 0.0161409 -1.01066e-19)
(-2.56185 0.0140399 6.56972e-20)
(-2.56629 0.01196 1.33551e-19)
(-2.56972 0.00990735 -7.33422e-20)
(-2.57219 0.00787311 -2.98093e-20)
(-2.57378 0.00587065 -5.13166e-20)
(-2.57457 0.0039238 7.44275e-20)
(-2.57466 0.00210073 -1.0318e-19)
(-2.57382 0.00041594 -7.7445e-20)
(-2.57185 -0.00118409 -4.98254e-20)
(-2.56874 -0.0027325 1.64373e-19)
(-2.56449 -0.00425012 -1.85029e-20)
(-2.55912 -0.00573551 1.15403e-20)
(-2.55264 -0.00720464 5.99616e-20)
(-2.54506 -0.00864181 1.28819e-19)
(-2.53638 -0.0100609 -1.75484e-20)
(-2.5266 -0.0114417 -4.91475e-20)
(-2.51575 -0.0128013 3.85527e-21)
(-2.50381 -0.0141188 -9.00876e-20)
(-2.49079 -0.0154143 9.72251e-20)
(-2.47672 -0.0166666 3.62386e-20)
(-2.46159 -0.0178961 2.83982e-20)
(-2.44542 -0.0190808 7.00701e-20)
(-2.4282 -0.02024 8.36339e-20)
(-2.40996 -0.0213571 -4.34149e-20)
(-2.39069 -0.0224529 2.79729e-20)
(-2.37039 -0.0235161 4.01142e-20)
(-2.34906 -0.0245616 4.80481e-20)
(-2.32668 -0.0255793 -5.46501e-21)
(-2.30328 -0.0265785 -2.08631e-21)
(-2.27885 -0.0275541 -3.78829e-20)
(-2.25341 -0.0285115 -3.45686e-20)
(-2.22695 -0.0294492 -3.65917e-20)
(-2.19946 -0.0303667 3.52949e-20)
(-2.17094 -0.0312685 -4.90053e-21)
(-2.14137 -0.032148 -2.01716e-20)
(-2.11075 -0.0330146 -4.05348e-21)
(-2.07908 -0.0338551 -2.21615e-20)
(-2.04636 -0.0346835 -2.72954e-20)
(-2.01257 -0.0354824 -1.29028e-20)
(-1.97773 -0.0362705 6.24475e-21)
(-1.94182 -0.0370288 4.375e-21)
(-1.90486 -0.0377837 4.00478e-21)
(-1.86681 -0.0385289 -3.24696e-21)
(-1.82764 -0.0392854 1.07685e-20)
(-1.78734 -0.0400163 -1.79422e-22)
(-1.74599 -0.0407055 4.54839e-21)
(-1.70367 -0.0413333 -6.27026e-21)
(-1.6604 -0.0419275 1.0525e-20)
(-1.61621 -0.0424984 6.09137e-21)
(-1.57113 -0.0430471 -1.37996e-20)
(-1.52517 -0.0435646 -4.83285e-21)
(-1.47835 -0.0440519 -2.72089e-20)
(-1.43071 -0.0445015 -1.81244e-20)
(-1.38226 -0.0449145 4.19256e-20)
(-1.33305 -0.0452908 7.09203e-20)
(-1.28311 -0.04563 -1.01945e-19)
(-1.23247 -0.0459192 3.23872e-20)
(-1.18116 -0.0461822 6.59612e-21)
(-1.12923 -0.0463917 -1.92596e-19)
(-1.07671 -0.0465635 4.87285e-21)
(-1.02366 -0.0466854 3.15827e-21)
(-0.970097 -0.0467621 -6.79821e-20)
(-0.916095 -0.0467952 8.84098e-20)
(-0.861681 -0.046789 1.2788e-19)
(-0.806904 -0.0467469 1.36307e-19)
(-0.751793 -0.0466771 1.23963e-19)
(-0.696382 -0.0465827 -1.88614e-19)
(-0.640694 -0.046472 2.46007e-20)
(-0.584747 -0.0463486 -5.41943e-20)
(-0.528553 -0.0462177 1.49667e-19)
(-0.472121 -0.046081 -4.66064e-20)
(-0.41546 -0.0459397 1.93611e-19)
(-0.358578 -0.0457938 -1.97728e-19)
(-0.301482 -0.0456452 -3.14807e-19)
(-0.244178 -0.0454965 -4.933e-19)
(-0.186671 -0.0453475 -2.39009e-19)
(-0.128965 -0.0451991 -1.1103e-19)
(-0.071071 -0.0450424 5.47697e-20)
(-0.0130106 -0.044855 3.41809e-20)
(0.0451656 -0.0445885 -3.99762e-19)
(0.103351 -0.0441775 -3.69701e-19)
(0.161276 -0.0434898 5.08177e-19)
(0.218902 -0.0422622 6.18145e-19)
(0.274044 -0.040011 5.77027e-19)
(0.331965 -0.0359507 2.89239e-19)
(0.368136 -0.0238148 -6.196e-19)
(-0.000154296 0.0215764 2.89089e-19)
(-0.00109586 0.0438896 2.77209e-18)
(0.00250652 0.0362574 2.97136e-18)
(0.0209748 0.00150294 -1.99732e-18)
(0.058944 -0.0573814 3.50813e-19)
(0.10865 -0.120827 -1.5866e-19)
(0.160632 -0.171904 -6.38018e-20)
(0.208213 -0.202729 4.76616e-19)
(0.248417 -0.213374 3.67192e-19)
(0.280781 -0.208056 3.00894e-19)
(0.306189 -0.191968 1.34366e-19)
(0.325953 -0.169649 1.26587e-19)
(0.341261 -0.144349 -4.01789e-19)
(0.352996 -0.11809 -2.48557e-19)
(0.361744 -0.0920059 8.90941e-20)
(0.367916 -0.0666508 -1.92781e-19)
(0.371789 -0.0422442 1.88356e-19)
(0.373575 -0.01886 2.84103e-20)
(0.373457 0.00352394 2.81016e-19)
(0.371811 0.0249823 2.44376e-19)
(0.368863 0.0457222 -2.30628e-19)
(0.364845 0.0657847 -6.19709e-19)
(0.359802 0.0849761 -1.11629e-19)
(0.35348 0.102757 -7.22642e-19)
(0.345318 0.118227 1.63075e-19)
(0.334476 0.130116 2.58229e-19)
(0.320017 0.136931 -1.05725e-19)
(0.301216 0.137238 3.77282e-19)
(0.278057 0.130078 2.13896e-19)
(0.251566 0.115291 5.09465e-19)
(0.223965 0.093525 -2.80341e-19)
(0.198274 0.0660636 -2.00917e-19)
(0.177705 0.0343826 1.16385e-19)
(0.164362 -8.70361e-05 -1.61176e-19)
(0.158387 -0.0358859 -2.26314e-19)
(0.156159 -0.0674924 -1.3249e-20)
(0.149951 -0.0833755 -6.17247e-19)
(0.134708 -0.0773298 1.95339e-19)
(0.111955 -0.0545153 -4.66467e-19)
(0.0825342 -0.0237353 -1.63716e-19)
(0.0458583 0.00960892 1.55648e-19)
(-0.000151431 0.0416849 -1.69539e-19)
(-0.0640825 0.0708841 -3.0896e-19)
(-0.151365 0.10593 6.64129e-19)
(-0.2575 0.151485 5.61804e-19)
(-0.379414 0.202803 -2.94339e-19)
(-0.512091 0.255751 1.0838e-19)
(-0.649065 0.306275 -1.05683e-19)
(-0.784227 0.349633 -1.61221e-19)
(-0.912772 0.383953 -6.9596e-20)
(-1.03141 0.408216 -6.78733e-20)
(-1.13826 0.421418 1.18695e-19)
(-1.23283 0.424222 1.89525e-20)
(-1.31479 0.417691 8.24991e-20)
(-1.38496 0.403146 9.13789e-21)
(-1.4449 0.382392 1.0241e-20)
(-1.49686 0.357513 4.26069e-20)
(-1.54287 0.330666 6.5129e-20)
(-1.5847 0.303496 -1.09296e-20)
(-1.62347 0.277262 2.07164e-19)
(-1.66016 0.252776 1.48523e-19)
(-1.69555 0.230309 3.43198e-20)
(-1.7301 0.210207 7.62523e-20)
(-1.76396 0.192621 -1.76956e-19)
(-1.7971 0.177317 2.60404e-20)
(-1.82951 0.163936 1.02243e-19)
(-1.86126 0.15226 -1.63946e-19)
(-1.8923 0.142029 -7.42329e-20)
(-1.9226 0.133013 4.98974e-20)
(-1.95213 0.124988 3.91195e-20)
(-1.98085 0.117776 -8.31185e-20)
(-2.00875 0.111214 1.43845e-19)
(-2.03579 0.105186 1.68181e-20)
(-2.06196 0.0995753 5.20977e-20)
(-2.08724 0.0943144 -1.71384e-19)
(-2.11163 0.0893247 1.66388e-19)
(-2.13508 0.084575 3.50529e-20)
(-2.15759 0.0800106 -7.25371e-20)
(-2.17913 0.0756165 -1.32446e-19)
(-2.19969 0.0713516 -6.5914e-20)
(-2.21925 0.0672154 1.0614e-20)
(-2.23781 0.0631789 2.86253e-20)
(-2.25536 0.0592462 -1.3583e-20)
(-2.27189 0.0553956 -1.01604e-19)
(-2.28741 0.0516342 -2.79202e-20)
(-2.30189 0.0479449 -3.10306e-20)
(-2.31536 0.044331 1.86461e-20)
(-2.32779 0.0407779 -6.45824e-20)
(-2.33918 0.0372863 -9.27709e-20)
(-2.34954 0.0338554 -1.14404e-19)
(-2.35892 0.0304852 3.70192e-20)
(-2.36733 0.0271759 -1.35414e-19)
(-2.37475 0.0239259 1.31809e-19)
(-2.38118 0.0207374 1.14009e-20)
(-2.38661 0.0176116 -3.11617e-20)
(-2.39103 0.0145525 -5.8037e-20)
(-2.39448 0.0115662 2.00563e-20)
(-2.39694 0.00866208 9.6707e-20)
(-2.39844 0.00585183 7.96182e-20)
(-2.39896 0.00313817 3.52731e-20)
(-2.39846 0.000501083 4.22815e-20)
(-2.39687 -0.00209112 2.10646e-20)
(-2.39418 -0.00463565 1.94662e-20)
(-2.39039 -0.0071314 -2.69067e-19)
(-2.3855 -0.00957953 5.28217e-20)
(-2.37952 -0.0119891 4.77342e-20)
(-2.37246 -0.0143559 -9.25958e-20)
(-2.36433 -0.0166816 7.85647e-20)
(-2.35513 -0.0189586 -2.60714e-20)
(-2.34486 -0.0211869 1.12685e-19)
(-2.33354 -0.0233611 8.17301e-20)
(-2.32116 -0.0254821 5.73133e-20)
(-2.30773 -0.0275476 -3.76278e-20)
(-2.29327 -0.0295587 4.52675e-20)
(-2.27779 -0.0315147 2.90109e-20)
(-2.26129 -0.0334153 -3.47994e-20)
(-2.24378 -0.035262 -5.19318e-20)
(-2.22526 -0.0370568 1.61484e-19)
(-2.20573 -0.038805 2.39335e-20)
(-2.1852 -0.0405087 -5.46874e-20)
(-2.16366 -0.0421747 -1.36613e-19)
(-2.14111 -0.0438017 -1.71989e-20)
(-2.11755 -0.0453959 -1.14063e-21)
(-2.09299 -0.0469561 -4.69781e-20)
(-2.06743 -0.0484869 4.88652e-21)
(-2.04086 -0.0499863 3.65593e-20)
(-2.01328 -0.0514576 -9.93098e-20)
(-1.98467 -0.0528994 3.25969e-20)
(-1.95503 -0.0543132 1.26621e-20)
(-1.92435 -0.0556982 4.79294e-20)
(-1.89263 -0.0570519 -1.27623e-20)
(-1.85987 -0.0583728 2.59669e-20)
(-1.82605 -0.0596549 6.1022e-20)
(-1.79118 -0.0608997 5.7536e-21)
(-1.75525 -0.0620988 -1.96888e-20)
(-1.71827 -0.0632513 4.42679e-21)
(-1.68023 -0.064351 2.75593e-21)
(-1.64111 -0.0654078 -3.41062e-21)
(-1.60092 -0.0664325 -1.53615e-21)
(-1.55972 -0.0674293 -6.25089e-22)
(-1.51756 -0.0683813 2.41927e-21)
(-1.47446 -0.0692875 -2.77951e-20)
(-1.43046 -0.0701509 -4.21128e-21)
(-1.38556 -0.0709685 -4.81278e-21)
(-1.33979 -0.0717312 -1.00859e-20)
(-1.29318 -0.0724368 4.93412e-20)
(-1.24575 -0.0730784 -1.47826e-20)