/*--------------------------------*- C++ -*----------------------------------*\
  =========                 |
  \\      /  F ield         | OpenFOAM: The Open Source CFD Toolbox
   \\    /   O peration     | Website:  https://openfoam.org
    \\  /    A nd           | Version:  13
     \\/     M anipulation  |
\*---------------------------------------------------------------------------*/
FoamFile
{
    format      ascii;
    class       volScalarField;
    location    "800";
    object      k;
}
// * * * * * * * * * * * * * * * * * * * * * * * * * * * * * * * * * * * * * //

dimensions      [0 2 -2 0 0 0 0];

internalField   nonuniform List<scalar> 
12225
(
0.697291
1.38393
1.73436
1.8025
1.92646
1.50693
2.40303
3.10345
2.40643
2.0054
1.59601
1.47349
1.7015
1.43851
1.33417
1.63063
1.20811
2.32966
0.387648
0.416905
0.45152
0.445868
0.415649
0.392552
0.377428
0.4879
0.492891
0.446321
0.431476
0.420149
0.444558
0.524953
0.568656
0.674334
0.731593
0.799623
0.378007
0.31356
0.228823
0.159975
0.105383
0.0702699
0.0628611
0.059481
0.066561
0.0710342
0.0734286
0.0867789
0.107037
0.142669
0.161588
0.185453
0.196295
0.209123
0.378039
0.288288
0.246459
0.177894
0.116385
0.0771085
0.060165
0.0528239
0.0475148
0.0520517
0.0659546
0.0718647
0.0907893
0.117441
0.118442
0.11739
0.118229
0.125647
0.330535
0.289622
0.261632
0.225168
0.191876
0.167596
0.143647
0.125806
0.119933
0.114988
0.112403
0.109563
0.124917
0.146722
0.15903
0.18082
0.184177
0.190537
0.404659
0.27331
0.232488
0.197137
0.199424
0.193205
0.175241
0.170688
0.178835
0.187282
0.178768
0.175967
0.197828
0.200762
0.204325
0.231793
0.23407
0.235551
0.376773
0.345824
0.30851
0.287991
0.267427
0.258774
0.250328
0.245653
0.251249
0.258096
0.249603
0.249161
0.250421
0.268239
0.288937
0.287929
0.290659
0.294932
0.37515
0.361464
0.345732
0.329192
0.320367
0.314687
0.306637
0.302575
0.298884
0.297487
0.295886
0.296308
0.297027
0.309626
0.310859
0.31718
0.320836
0.320788
0.373648
0.367972
0.359092
0.351315
0.345816
0.342132
0.337209
0.335156
0.32955
0.327765
0.326239
0.329906
0.334728
0.331999
0.333181
0.334769
0.335037
0.333787
0.373472
0.370857
0.366001
0.362203
0.358423
0.356058
0.353154
0.351237
0.349721
0.347024
0.346933
0.346425
0.346497
0.345434
0.344533
0.343423
0.342334
0.340795
0.373845
0.37139
0.368434
0.365787
0.3632
0.361064
0.359028
0.357197
0.35572
0.354206
0.353027
0.351868
0.350846
0.3496
0.348408
0.347087
0.345864
0.344476
0.373855
0.371538
0.369164
0.366905
0.364741
0.36276
0.360929
0.359219
0.357683
0.356222
0.354882
0.353575
0.352336
0.351057
0.349829
0.348565
0.347388
0.34615
0.373836
0.37156
0.369371
0.367271
0.365276
0.363385
0.361619
0.359943
0.358385
0.356898
0.355507
0.354156
0.352878
0.351615
0.350411
0.349216
0.34809
0.346965
0.373829
0.371556
0.369405
0.367355
0.365413
0.363563
0.361815
0.360152
0.358581
0.357083
0.355665
0.354306
0.353014
0.351769
0.350581
0.349435
0.348343
0.347288
0.373827
0.371554
0.369402
0.36736
0.365423
0.363583
0.361836
0.360175
0.358597
0.357095
0.355666
0.354304
0.353005
0.351766
0.350584
0.349454
0.348375
0.347345
0.373826
0.371552
0.369397
0.367353
0.365414
0.363572
0.361823
0.360159
0.358578
0.357071
0.355638
0.354272
0.352971
0.35173
0.350547
0.349418
0.348341
0.347314
0.373825
0.37155
0.369393
0.367347
0.365406
0.363562
0.36181
0.360144
0.358559
0.357051
0.355614
0.354246
0.352941
0.351698
0.350512
0.349381
0.348302
0.347273
0.373825
0.371549
0.369391
0.367344
0.365401
0.363555
0.361802
0.360134
0.358548
0.357037
0.355599
0.354228
0.352922
0.351677
0.350489
0.349356
0.348274
0.347243
0.373825
0.371549
0.369391
0.367343
0.3654
0.363554
0.3618
0.360132
0.358545
0.357034
0.355595
0.354223
0.352916
0.351669
0.35048
0.349346
0.348263
0.34723
0.373825
0.37155
0.369393
0.367347
0.365405
0.363561
0.361807
0.360141
0.358553
0.357043
0.355602
0.354231
0.352923
0.351676
0.350486
0.349352
0.348269
0.347237
0.373827
0.371552
0.369397
0.367353
0.365417
0.363572
0.361819
0.360144
0.358548
0.357024
0.355571
0.35419
0.352873
0.351622
0.350429
0.349297
0.348216
0.347191
0.373836
0.371547
0.369406
0.367366
0.365452
0.363578
0.361785
0.360017
0.358324
0.356692
0.355143
0.353691
0.352307
0.35102
0.349795
0.348675
0.347588
0.346606
0.373864
0.371514
0.369439
0.367411
0.365532
0.363398
0.361293
0.359005
0.356796
0.354664
0.352693
0.350879
0.349143
0.347639
0.346201
0.345087
0.343824
0.342952
0.373891
0.371472
0.369517
0.367473
0.365414
0.362086
0.358607
0.354491
0.350246
0.34669
0.343051
0.339665
0.336521
0.33412
0.331589
0.330046
0.326925
0.325491
0.373874
0.371599
0.369439
0.367259
0.364139
0.35705
0.349132
0.339186
0.329133
0.320867
0.312377
0.304747
0.299263
0.29488
0.292251
0.289744
0.285446
0.284025
0.373992
0.371672
0.369245
0.36622
0.358769
0.34337
0.321411
0.297085
0.274567
0.253066
0.233839
0.223671
0.220782
0.217402
0.214837
0.213223
0.208219
0.210715
0.374517
0.371723
0.368271
0.362713
0.34236
0.306163
0.262168
0.214482
0.176346
0.140222
0.118995
0.107262
0.104417
0.102198
0.100191
0.101121
0.112394
0.138407
0.374536
0.37337
0.369386
0.339563
0.282702
0.212977
0.150793
0.104264
0.0739649
0.0528412
0.0439057
0.043112
0.0435613
0.0509557
0.0682333
0.103336
0.123223
0.132351
0.370996
0.427587
0.407425
0.416046
0.367684
0.389562
0.396979
0.376075
0.376565
0.340074
0.287853
0.296204
0.285083
0.288042
0.305063
0.346768
0.400796
0.454451
1.03935
1.32398
1.50405
1.59762
1.61345
1.60218
1.57111
1.52504
1.47477
1.42392
1.37512
1.33125
1.29133
1.25644
1.22627
1.20214
1.18324
1.16859
1.56734e-08
3.91419e-07
2.00158e-06
7.88976e-06
2.6814e-05
8.48669e-05
0.000217057
0.000423212
0.000677471
0.000938447
0.00117156
0.00135085
0.00147368
0.00151893
0.00149784
0.00144527
0.00133055
0.00114829
0.000981119
0.0008395
0.000705013
0.000573948
0.000445381
0.000326294
0.00021879
0.00013363
7.4882e-05
3.98303e-05
2.11383e-05
1.16728e-05
6.97467e-06
4.78092e-06
4.42099e-06
6.86598e-06
1.5231e-05
3.71185e-05
0.0001758
0.000399086
0.000788059
0.00110747
0.00121851
0.00112967
0.000923252
0.000720222
0.000520015
0.000432521
0.000468103
0.000610282
0.000823032
0.00130286
0.0024137
0.00599746
0.0198057
0.0502961
0.0874699
0.110163
0.120695
0.125691
0.129364
0.131683
0.146644
0.155432
0.161615
0.155179
0.165189
0.178643
0.159601
0.175811
0.183449
0.192488
0.200961
0.209663
0.217954
0.22644
0.234675
0.242998
0.25119
0.259402
0.267537
0.275651
0.283704
0.291707
0.299642
0.307503
0.315277
0.32296
0.330529
0.337992
0.34531
0.352494
0.35951
0.366359
0.373023
0.379485
0.385737
0.391757
0.39754
0.40307
0.408347
0.413378
0.41819
0.422829
0.42736
0.431638
0.435693
0.439527
0.443122
0.446497
0.44963
0.452536
0.455201
0.457634
0.459832
0.461795
0.46353
0.465031
0.466318
0.467375
0.468227
0.468864
0.469324
0.46961
0.469779
0.469835
0.469897
0.470061
0.469107
0.468208
0.467565
0.466481
0.465611
0.464745
0.463717
0.462576
0.461475
0.460193
0.459032
0.457936
0.456253
0.454636
0.453631
0.45255
0.450755
0.449329
0.448537
0.44741
0.446121
0.44546
0.443831
0.442366
0.440775
0.439142
0.437435
0.435644
0.433782
0.431836
0.42978
0.427692
0.425471
0.423204
0.420922
0.418523
0.416161
0.41361
0.411031
0.408355
0.405603
0.402786
0.399894
0.39695
0.39394
0.390886
0.387765
0.384585
0.381293
0.37783
0.374106
0.369749
0.364017
0.34839
9.53251e-08
2.71452e-06
1.8506e-05
7.91763e-05
0.000290639
0.000773624
0.00173101
0.00304787
0.00456374
0.00609643
0.00748745
0.00863068
0.00948108
0.0100318
0.0102917
0.0102968
0.0100817
0.00982887
0.00931964
0.00860641
0.00768406
0.00660711
0.00540139
0.00418508
0.00296865
0.00201146
0.00130537
0.000823651
0.000509553
0.00031352
0.000199722
0.000137542
0.000113672
0.000126409
0.000225533
0.000399353
0.00187675
0.00410529
0.00746638
0.0101605
0.0117883
0.0117183
0.0110709
0.00949192
0.00774732
0.00793444
0.0100477
0.0143267
0.0193568
0.0285914
0.0437952
0.0677956
0.0924008
0.117612
0.137755
0.151969
0.163993
0.177273
0.19387
0.209301
0.229698
0.247686
0.266974
0.285445
0.305386
0.324246
0.343263
0.363235
0.382402
0.401686
0.4205
0.43934
0.457943
0.476528
0.495028
0.51352
0.532002
0.550494
0.569005
0.58753
0.606076
0.624627
0.643179
0.661711
0.680215
0.69867
0.717063
0.735377
0.753584
0.771669
0.789597
0.807355
0.824909
0.842231
0.859287
0.87604
0.892453
0.90848
0.924079
0.939199
0.953798
0.967832
0.981306
0.994398
1.00707
1.01932
1.03113
1.04249
1.05338
1.06379
1.0737
1.0831
1.09197
1.10032
1.10812
1.11538
1.1221
1.12826
1.13388
1.13895
1.14351
1.14759
1.1512
1.15439
1.15715
1.15951
1.16138
1.16294
1.16417
1.16506
1.1657
1.16606
1.16615
1.16594
1.16553
1.16515
1.16471
1.16432
1.16407
1.16313
1.16236
1.16152
1.16112
1.16088
1.16015
1.15932
1.15851
1.15762
1.15651
1.15506
1.15346
1.15166
1.14963
1.14735
1.14482
1.14201
1.13891
1.13554
1.13186
1.12795
1.1237
1.11929
1.11454
1.10949
1.10415
1.09851
1.09258
1.08638
1.07989
1.07314
1.06613
1.05889
1.05138
1.04362
1.03553
1.02703
1.01795
1.00786
0.994717
0.967638
2.57339e-07
7.66872e-06
5.77627e-05
0.00025527
0.000872921
0.00211256
0.00415174
0.00648052
0.0087878
0.0108533
0.0125675
0.0138774
0.0147929
0.0153496
0.0156004
0.0156118
0.0153767
0.0150985
0.0146274
0.0140271
0.013296
0.0124238
0.0113958
0.010207
0.00888383
0.00735626
0.00575831
0.00426369
0.00297017
0.0019822
0.00134897
0.000958712
0.000783944
0.000570655
0.00121929
0.0023366
0.00737495
0.014728
0.0211746
0.0257297
0.0282758
0.0290657
0.0284982
0.0278027
0.0303481
0.0390609
0.0529382
0.0671704
0.0830279
0.102119
0.122929
0.142802
0.164189
0.185884
0.207367
0.230121
0.254937
0.282028
0.310552
0.340612
0.370181
0.39934
0.428402
0.456969
0.485285
0.512864
0.540007
0.566695
0.592845
0.618617
0.644013
0.669164
0.69408
0.71884
0.743468
0.768006
0.792472
0.816885
0.841253
0.865579
0.889864
0.914098
0.938273
0.962375
0.986388
1.0103
1.03408
1.05772
1.0812
1.10448
1.12756
1.1504
1.17299
1.19529
1.21729
1.23896
1.26028
1.28122
1.30177
1.32191
1.34163
1.3609
1.37969
1.39799
1.41575
1.43297
1.44962
1.46567
1.48111
1.49591
1.51006
1.52352
1.53628
1.54833
1.55965
1.57023
1.58006
1.58914
1.59746
1.60504
1.6119
1.61807
1.62358
1.62847
1.63275
1.63645
1.63958
1.64222
1.64436
1.64607
1.64737
1.64831
1.6489
1.6492
1.64924
1.64908
1.64876
1.64835
1.64752
1.64607
1.64488
1.64362
1.64236
1.64111
1.63957
1.63794
1.63609
1.63401
1.63169
1.62906
1.62615
1.62292
1.61933
1.61537
1.61101
1.60624
1.60105
1.59542
1.58936
1.58288
1.57593
1.5686
1.56082
1.55263
1.54403
1.53504
1.52567
1.51594
1.50586
1.49545
1.48472
1.4737
1.4624
1.45083
1.43896
1.42672
1.41399
1.40051
1.38417
1.35815
8.97367e-07
2.69006e-05
0.00020687
0.000849934
0.00240539
0.00549679
0.00903263
0.0123884
0.0152305
0.0174451
0.0190262
0.0200273
0.0205532
0.0206896
0.0205961
0.020312
0.0198279
0.0192405
0.0185724
0.0178343
0.017031
0.0161606
0.0152069
0.0141482
0.0129685
0.0116455
0.0101786
0.00863175
0.00709537
0.00566523
0.00436318
0.00343709
0.00272946
0.00301582
0.00521452
0.0126454
0.0248002
0.0351934
0.0429187
0.0482183
0.0517296
0.0551931
0.0609201
0.0699735
0.0818409
0.0952439
0.108659
0.123258
0.140552
0.160774
0.182765
0.207066
0.2337
0.261965
0.291862
0.323554
0.35668
0.390774
0.425286
0.459903
0.494163
0.528046
0.561518
0.594502
0.627027
0.658959
0.69045
0.721471
0.752037
0.782245
0.812143
0.841793
0.871234
0.900513
0.929663
0.958713
0.987685
1.01659
1.04545
1.07426
1.10301
1.13171
1.16034
1.1889
1.21736
1.2457
1.27392
1.30197
1.32985
1.35752
1.38497
1.41217
1.43909
1.46572
1.49203
1.51799
1.54358
1.56878
1.59357
1.61791
1.64178
1.66515
1.68797
1.71022
1.73186
1.75286
1.7732
1.79285
1.81179
1.82998
1.84739
1.86401
1.87981
1.89476
1.90884
1.92205
1.93436
1.94577
1.95629
1.96591
1.97466
1.98257
1.98966
1.99599
2.00157
2.00643
2.01062
2.01417
2.01712
2.01951
2.02139
2.02281
2.02379
2.02439
2.02464
2.02458
2.02423
2.02352
2.02211
2.02055
2.01883
2.017
2.01499
2.01283
2.01038
2.00771
2.00471
2.00138
1.99771
1.99366
1.9892
1.98432
1.97898
1.97316
1.96684
1.95999
1.95263
1.94472
1.93628
1.92732
1.91781
1.9078
1.89727
1.88626
1.87478
1.86284
1.85047
1.83769
1.82453
1.811
1.79715
1.78299
1.76856
1.7539
1.73901
1.7239
1.70849
1.69262
1.67454
1.64964
2.95331e-06
8.8023e-05
0.000652654
0.00248092
0.00663026
0.0118522
0.0165563
0.0202004
0.0227551
0.0243518
0.0251896
0.0254692
0.0253771
0.0250404
0.0244585
0.0237601
0.0229881
0.0221745
0.0213395
0.02049
0.0196243
0.0187352
0.0178099
0.0168265
0.0157637
0.0145962
0.0133036
0.0119075
0.0104772
0.00910154
0.00776854
0.0066338
0.00723769
0.0112254
0.0225321
0.0382324
0.052045
0.0629843
0.0710925
0.0775005
0.0839903
0.0916569
0.100713
0.111017
0.122386
0.135295
0.150913
0.169859
0.192182
0.217468
0.245522
0.275774
0.307739
0.341076
0.375587
0.411028
0.447105
0.483544
0.520076
0.55666
0.593172
0.629548
0.665723
0.701647
0.737289
0.772595
0.807585
0.842255
0.876615
0.910706
0.944559
0.978208
1.01169
1.04502
1.07825
1.11138
1.14445
1.17746
1.21043
1.24335
1.27623
1.30905
1.34182
1.37452
1.40712
1.43962
1.47197
1.50417
1.53619
1.56799
1.59955
1.63084
1.66184
1.69253
1.72286
1.75282
1.78237
1.81149
1.84013
1.86828
1.89589
1.92293
1.94935
1.97515
2.00026
2.02468
2.04835
2.07126
2.09337
2.11465
2.13507
2.1546
2.1732
2.19086
2.20754
2.22322
2.23789
2.25154
2.26416
2.27575
2.28635
2.29596
2.30463
2.31237
2.31924
2.32526
2.33047
2.33491
2.33863
2.34166
2.34407
2.34588
2.34716
2.34794
2.34825
2.34813
2.34757
2.3463
2.34463
2.34257
2.34026
2.33769
2.33483
2.33167
2.32817
2.32432
2.32006
2.31539
2.31027
2.30468
2.29861
2.29201
2.28488
2.27717
2.26887
2.25997
2.25046
2.24034
2.22961
2.21827
2.20633
2.19382
2.18073
2.16709
2.15294
2.13829
2.12317
2.10762
2.09165
2.0753
2.05861
2.04164
2.02443
2.00703
1.9895
1.97187
1.95412
1.93617
1.91658
1.89182
9.24819e-06
0.000268114
0.00190568
0.00669851
0.0141985
0.0205227
0.0249103
0.0276096
0.0290743
0.0296934
0.0297179
0.0294292
0.028792
0.0279644
0.0270316
0.0260489
0.0250572
0.0240812
0.0231347
0.0222189
0.0213274
0.0204471
0.0195609
0.0186428
0.0176673
0.0166087
0.0154249
0.0140889
0.0126104
0.0112958
0.0113139
0.0134156
0.0206702
0.0354897
0.0533785
0.0696732
0.0829443
0.0928793
0.100353
0.106884
0.11374
0.1215
0.130466
0.14173
0.155907
0.173452
0.194568
0.219214
0.246998
0.277151
0.30908
0.342304
0.37652
0.411514
0.4472
0.483544
0.520433
0.557765
0.595443
0.633416
0.671599
0.709912
0.748282
0.786657
0.824983
0.863208
0.901304
0.939251
0.977039
1.01467
1.05216
1.08953
1.12677
1.16393
1.20102
1.23805
1.27504
1.312
1.34894
1.38587
1.42277
1.45966
1.4965
1.53329
1.57001
1.60662
1.64311
1.67945
1.7156
1.75153
1.78721
1.8226
1.85767
1.8924
1.92674
1.96066
1.99412
2.02709
2.05953
2.0914
2.12267
2.15331
2.18327
2.21253
2.24104
2.26879
2.29573
2.32183
2.34705
2.37136
2.39473
2.41712
2.43849
2.45882
2.47807
2.4962
2.51321
2.52908
2.54379
2.55735
2.56977
2.58107
2.59128
2.60043
2.60856
2.61569
2.62188
2.62716
2.63158
2.63518
2.63802
2.64015
2.64161
2.64244
2.64269
2.64238
2.64132
2.63968
2.63747
2.63482
2.63176
2.62832
2.62448
2.62023
2.61554
2.61041
2.60479
2.59867
2.59202
2.58483
2.57707
2.56871
2.55973
2.55011
2.53983
2.52888
2.51726
2.50495
2.49198
2.47834
2.46405
2.44912
2.43358
2.41744
2.40075
2.38352
2.36579
2.3476
2.32898
2.30997
2.29062
2.27101
2.25118
2.23122
2.21121
2.19121
2.17124
2.15126
2.13005
2.10464
2.84215e-05
0.000778821
0.00499693
0.0147089
0.0232435
0.0286231
0.0316643
0.0332174
0.0338011
0.0337359
0.0332539
0.0323848
0.0313118
0.0301234
0.028892
0.0276713
0.0264989
0.0253951
0.0243671
0.0234089
0.0225082
0.021644
0.0207894
0.0199067
0.0189581
0.0179877
0.0171118
0.0164716
0.0165205
0.018238
0.0235678
0.0346242
0.0510475
0.0690474
0.0858385
0.099646
0.109878
0.117228
0.123172
0.129121
0.136015
0.14527
0.15751
0.1732
0.192437
0.215268
0.241377
0.270149
0.300846
0.332871
0.365798
0.399562
0.434091
0.469335
0.505277
0.541904
0.579196
0.61712
0.655629
0.694663
0.734155
0.774045
0.814267
0.85475
0.895427
0.936236
0.977125
1.01805
1.05899
1.09992
1.14083
1.18171
1.22257
1.26341
1.30425
1.34509
1.38594
1.42682
1.46773
1.50867
1.54964
1.59062
1.6316
1.67257
1.71349
1.75434
1.79508
1.83567
1.87608
1.91627
1.95619
1.9958
2.03507
2.07394
2.11239
2.15036
2.18782
2.22472
2.26102
2.29669
2.33168
2.36596
2.39949
2.43225
2.4642
2.49529
2.52551
2.55481
2.58315
2.61051
2.63683
2.66208
2.68622
2.70921
2.73102
2.7516
2.77094
2.78901
2.80579
2.82129
2.83551
2.84848
2.8602
2.87071
2.88005
2.88825
2.89535
2.9014
2.90644
2.91054
2.91372
2.91606
2.9176
2.91838
2.91843
2.91775
2.91623
2.91404
2.91121
2.9078
2.90388
2.89945
2.89451
2.88907
2.8831
2.87659
2.86952
2.86187
2.85363
2.84476
2.83525
2.82509
2.81424
2.80268
2.79039
2.77738
2.76364
2.74917
2.73398
2.71808
2.70148
2.6842
2.66626
2.6477
2.62853
2.6088
2.58855
2.5678
2.54661
2.52503
2.50312
2.48095
2.45861
2.43617
2.41374
2.39142
2.36924
2.34718
2.32417
2.29755
8.0515e-05
0.00205987
0.0113578
0.023574
0.031056
0.0351498
0.0372269
0.0380287
0.0379769
0.0373804
0.0363137
0.0349872
0.0335151
0.0319905
0.0304873
0.029058
0.0277364
0.0265366
0.0254601
0.0244954
0.0236259
0.0228307
0.0220935
0.0213819
0.0207629
0.0204235
0.0206925
0.0224732
0.027022
0.0360743
0.0497711
0.066042
0.0827387
0.0984062
0.111574
0.121412
0.128482
0.134061
0.139756
0.147199
0.157297
0.170701
0.187575
0.207975
0.231615
0.258043
0.286614
0.316761
0.348044
0.380167
0.413017
0.446588
0.480898
0.515969
0.551832
0.588511
0.626016
0.664327
0.703417
0.74326
0.78381
0.825011
0.866796
0.909094
0.951832
0.994939
1.03835
1.08202
1.12588
1.16991
1.21406
1.25833
1.30269
1.34714
1.39168
1.43631
1.48104
1.52587
1.5708
1.61583
1.66096
1.70616
1.75142
1.79672
1.84201
1.88727
1.93245
1.9775
2.02237
2.06701
2.11137
2.1554
2.19905
2.24226
2.28498
2.32717
2.36877
2.40974
2.45004
2.48961
2.52842
2.56644
2.60363
2.63995
2.67537
2.70986
2.74338
2.77589
2.80736
2.83775
2.86701
2.8951
2.92198
2.94761
2.97195
2.99494
3.01656
3.03679
3.05559
3.07297
3.08893
3.10348
3.11664
3.12844
3.13891
3.14809
3.15601
3.16274
3.16831
3.17279
3.17622
3.17867
3.18018
3.18077
3.18052
3.17935
3.17731
3.17448
3.17089
3.16663
3.16172
3.15619
3.15006
3.14332
3.13597
3.12801
3.11941
3.11016
3.10025
3.08965
3.07835
3.06632
3.05355
3.04002
3.02572
3.01064
2.99479
2.97816
2.96077
2.94263
2.92375
2.90416
2.88387
2.86292
2.84134
2.81917
2.79644
2.77321
2.74952
2.72544
2.70102
2.67637
2.65156
2.62669
2.60189
2.57724
2.55282
2.52863
2.50366
2.47536
0.000196344
0.00465121
0.0196803
0.0316154
0.0379053
0.0410622
0.0424141
0.0426052
0.0420357
0.0408756
0.0393482
0.0376028
0.0357656
0.0339399
0.0322056
0.0306178
0.0292106
0.0279974
0.0269791
0.0261528
0.0255075
0.0250699
0.0249318
0.0251639
0.0260729
0.028128
0.0321702
0.0395398
0.050201
0.0632882
0.077918
0.0928249
0.106681
0.118493
0.127742
0.134783
0.140828
0.147395
0.155793
0.166946
0.181281
0.198962
0.219776
0.243356
0.269292
0.297108
0.326306
0.356496
0.387448
0.41908
0.451402
0.484462
0.51832
0.553034
0.588662
0.625236
0.662772
0.701281
0.74077
0.781221
0.822605
0.864874
0.907969
0.951825
0.99637
1.04153
1.08724
1.13342
1.18002
1.22698
1.27426
1.32181
1.36961
1.41763
1.46587
1.51431
1.56296
1.61181
1.66087
1.71012
1.75955
1.80914
1.85887
1.90869
1.95857
2.00847
2.05831
2.10806
2.15763
2.20697
2.25602
2.30469
2.35295
2.40071
2.44792
2.49453
2.54046
2.58567
2.6301
2.67371
2.71646
2.75831
2.79922
2.83915
2.87808
2.91597
2.95279
2.9885
3.02306
3.05644
3.08858
3.11946
3.14901
3.17719
3.20396
3.22927
3.25308
3.27535
3.29606
3.3152
3.33278
3.34879
3.36326
3.37621
3.38768
3.3977
3.40633
3.41359
3.41956
3.42429
3.42784
3.43026
3.4316
3.43189
3.43122
3.4295
3.42682
3.42322
3.41878
3.41353
3.40753
3.4008
3.39337
3.38524
3.37643
3.36693
3.35673
3.34582
3.33417
3.32178
3.30863
3.2947
3.27998
3.26445
3.2481
3.23094
3.21296
3.19418
3.1746
3.15424
3.13311
3.11123
3.08863
3.06534
3.04139
3.01683
2.99169
2.96603
2.9399
2.91336
2.88651
2.85942
2.83219
2.80493
2.77777
2.75081
2.72412
2.69774
2.67071
2.64069
0.000415442
0.00905794
0.0280408
0.0389219
0.0442931
0.046795
0.0476053
0.0473076
0.0462321
0.044624
0.0426803
0.0405691
0.0384332
0.036389
0.0345263
0.0329064
0.0315721
0.0305449
0.0298233
0.0294706
0.0294251
0.0298623
0.0310491
0.0334207
0.0374711
0.0436467
0.0521219
0.0624336
0.0742895
0.0869993
0.0997312
0.111603
0.121977
0.130684
0.138078
0.145032
0.1527
0.162203
0.174297
0.189339
0.207315
0.228024
0.251126
0.276232
0.302944
0.330885
0.35974
0.389313
0.419532
0.450411
0.482013
0.514415
0.547701
0.581943
0.6172
0.653518
0.690945
0.729512
0.769237
0.810118
0.85214
0.895269
0.93946
0.984656
1.03079
1.0778
1.1256
1.17412
1.2233
1.27307
1.32336
1.37412
1.42532
1.4769
1.52885
1.58116
1.63381
1.68679
1.7401
1.79372
1.84764
1.90181
1.95621
2.01079
2.0655
2.12028
2.17506
2.22975
2.28429
2.33859
2.39258
2.44616
2.49927
2.55182
2.60375
2.65497
2.70542
2.75503
2.80374
2.85151
2.8983
2.94405
2.98873
3.03231
3.07475
3.11603
3.1561
3.19495
3.23252
3.26879
3.30371
3.33724
3.36932
3.39992
3.42898
3.45644
3.48227
3.50641
3.52885
3.54956
3.56855
3.58583
3.60141
3.61532
3.62759
3.63826
3.64739
3.65501
3.66119
3.66599
3.66948
3.67171
3.67272
3.67258
3.67132
3.66893
3.66547
3.661
3.65556
3.64921
3.642
3.63396
3.62512
3.61551
3.60515
3.59402
3.58215
3.56949
3.55606
3.54182
3.52677
3.51089
3.49417
3.4766
3.45818
3.43891
3.4188
3.39786
3.37609
3.35353
3.33017
3.30604
3.28117
3.25558
3.22932
3.20242
3.17493
3.14689
3.11838
3.08946
3.06021
3.03074
3.00115
2.97154
2.94204
2.91277
2.88381
2.85521
2.82608
2.79438
0.000760323
0.0151375
0.0354471
0.0456822
0.0505494
0.0526219
0.0530438
0.0523485
0.0508775
0.0488991
0.0466357
0.0442779
0.0419886
0.0399015
0.0381248
0.036739
0.035825
0.0354491
0.0354859
0.0361268
0.0375188
0.0398898
0.0434921
0.0485146
0.0550853
0.0631733
0.0725711
0.0829044
0.0936997
0.104398
0.114514
0.123741
0.132068
0.139833
0.147679
0.156457
0.167
0.179877
0.195322
0.213299
0.233593
0.255909
0.279919
0.30531
0.331794
0.359138
0.38718
0.41585
0.445157
0.475161
0.50595
0.537616
0.570247
0.603918
0.638709
0.674686
0.71191
0.750426
0.790265
0.831442
0.873956
0.91779
0.962913
1.00928
1.05684
1.10552
1.15526
1.20598
1.25761
1.31007
1.36329
1.41721
1.47178
1.52693
1.58264
1.63887
1.69561
1.75284
1.81056
1.86872
1.92731
1.98628
2.04559
2.10517
2.16495
2.22488
2.28485
2.34477
2.40454
2.46407
2.52326
2.582
2.64021
2.69778
2.75462
2.81064
2.86576
2.9199
2.97301
3.02502
3.07589
3.12558
3.17404
3.22124
3.26714
3.31172
3.35495
3.3968
3.43725
3.47624
3.51375
3.54973
3.58414
3.61692
3.64803
3.67741
3.70501
3.73078
3.75469
3.77672
3.79686
3.81512
3.83153
3.84612
3.85893
3.86999
3.87935
3.88708
3.89322
3.89786
3.90105
3.90287
3.90335
3.90259
3.90057
3.89734
3.89294
3.88743
3.88086
3.87328
3.86472
3.85525
3.84489
3.83369
3.82167
3.80884
3.7952
3.78074
3.76544
3.74929
3.73228
3.7144
3.69563
3.67597
3.65544
3.63405
3.6118
3.5887
3.56477
3.54001
3.51446
3.48812
3.46103
3.43321
3.40469
3.37552
3.34574
3.31541
3.28458
3.25335
3.2218
3.19002
3.15813
3.12623
3.09445
3.06291
3.03169
3.00087
2.96962
2.93612
0.00118731
0.0213761
0.04255
0.0524957
0.0570547
0.0587942
0.0589235
0.0579066
0.0561295
0.0538997
0.051475
0.049072
0.0468733
0.045032
0.043669
0.0429665
0.0428088
0.0432948
0.0445398
0.0466172
0.0496423
0.0537156
0.0588995
0.0651908
0.0725177
0.0807171
0.0895169
0.0985952
0.107643
0.116433
0.124866
0.133019
0.141181
0.149843
0.159597
0.170998
0.184426
0.200021
0.217727
0.237358
0.25867
0.281407
0.30533
0.330229
0.355935
0.382328
0.409348
0.436995
0.465322
0.494411
0.524357
0.555252
0.587194
0.620274
0.654582
0.690197
0.727189
0.765617
0.805525
0.846943
0.889886
0.934351
0.980324
1.02777
1.07665
1.12691
1.17848
1.23128
1.28526
1.34032
1.3964
1.45342
1.51132
1.57003
1.62952
1.68974
1.75066
1.81228
1.87456
1.93747
2.00096
2.06497
2.12943
2.19427
2.2594
2.32472
2.39015
2.45555
2.52081
2.5858
2.65041
2.71452
2.77802
2.84078
2.90268
2.96362
3.02349
3.08222
3.13973
3.19599
3.25092
3.30448
3.35663
3.40734
3.45656
3.50428
3.55048
3.59512
3.6382
3.67966
3.71948
3.75763
3.79404
3.82869
3.86153
3.8925
3.92154
3.9486
3.97365
3.99666
4.01761
4.03651
4.0534
4.06833
4.08132
4.09243
4.1017
4.1092
4.11499
4.11915
4.12175
4.12288
4.12258
4.12095
4.11795
4.11364
4.1081
4.10136
4.09348
4.08451
4.07446
4.0634
4.05139
4.03848
4.02469
4.01005
3.99454
3.97818
3.96094
3.94281
3.92378
3.90383
3.88296
3.86119
3.83853
3.815
3.79061
3.76537
3.7393
3.7124
3.6847
3.65621
3.62697
3.59698
3.5663
3.53495
3.50298
3.47044
3.43741
3.40397
3.37021
3.33623
3.30213
3.26803
3.23405
3.20031
3.16688
3.13389
3.10054
3.06525
0.00175885
0.0269061
0.0491151
0.0592166
0.0637292
0.0652939
0.065222
0.0639533
0.0619545
0.0596049
0.0572111
0.055016
0.053196
0.0519189
0.0513502
0.0513127
0.0520515
0.0535944
0.0559464
0.0591425
0.0631951
0.0680949
0.0738016
0.0802308
0.0872609
0.094734
0.102477
0.110353
0.118285
0.126275
0.13444
0.14303
0.152392
0.162907
0.17491
0.188625
0.204122
0.221338
0.240126
0.260298
0.281662
0.304044
0.327298
0.351307
0.37599
0.401306
0.42726
0.453892
0.481271
0.509488
0.538642
0.568832
0.600164
0.632737
0.666651
0.701994
0.738847
0.777273
0.817331
0.859065
0.902503
0.947658
0.994524
1.04308
1.09328
1.14509
1.19844
1.25326
1.3095
1.36707
1.42592
1.48596
1.54714
1.60938
1.67266
1.73692
1.80214
1.86828
1.93531
2.00316
2.07177
2.14106
2.21091
2.28124
2.35194
2.4229
2.49398
2.56507
2.63599
2.70661
2.7768
2.84641
2.91531
2.98333
3.05034
3.11619
3.18076
3.24399
3.3058
3.36615
3.42497
3.48221
3.53783
3.59179
3.64405
3.6946
3.74343
3.79052
3.83584
3.87939
3.92112
3.96101
3.99902
4.0351
4.06922
4.10133
4.13138
4.15932
4.18511
4.20869
4.23007
4.24917
4.26613
4.28098
4.29376
4.30451
4.31329
4.32016
4.32523
4.32855
4.33022
4.33032
4.32896
4.32614
4.32185
4.31619
4.30924
4.30103
4.29163
4.28106
4.26935
4.25652
4.2427
4.22792
4.21223
4.19564
4.17816
4.15979
4.14052
4.12034
4.09922
4.07715
4.05413
4.03021
4.00542
3.97976
3.95326
3.92591
3.89773
3.86875
3.83897
3.80841
3.7771
3.74507
3.71233
3.6789
3.64486
3.61025
3.57515
3.53964
3.50382
3.46778
3.43162
3.39545
3.35939
3.32355
3.28803
3.25295
3.21759
3.18061
0.0024117
0.0321882
0.05578
0.0661382
0.0706287
0.072055
0.0717927
0.0703005
0.0681055
0.0657065
0.0635075
0.0617553
0.0606018
0.0601032
0.060094
0.0608816
0.0624737
0.0648118
0.0678696
0.0716268
0.0760537
0.081104
0.0867163
0.0928146
0.099323
0.106177
0.113338
0.120806
0.12863
0.136939
0.145923
0.155808
0.16682
0.179143
0.192889
0.208081
0.224661
0.242518
0.261515
0.281517
0.302402
0.324071
0.346447
0.369484
0.393162
0.417493
0.44252
0.468307
0.494934
0.522484
0.551063
0.580774
0.61173
0.644034
0.677797
0.71311
0.750068
0.788746
0.829215
0.871528
0.915723
0.961818
1.00981
1.05968
1.11139
1.16489
1.22011
1.27699
1.33546
1.39548
1.45698
1.51991
1.58423
1.6499
1.7169
1.78519
1.85473
1.92548
1.99736
2.0703
2.1442
2.21893
2.29436
2.37035
2.44678
2.52351
2.60039
2.67726
2.75394
2.83025
2.90602
2.98112
3.05537
3.12858
3.20058
3.27116
3.34016
3.40759
3.47338
3.53747
3.59979
3.66028
3.71891
3.77563
3.83043
3.88329
3.9342
3.98317
4.03018
4.07524
4.1183
4.15936
4.19837
4.23531
4.27014
4.30282
4.33332
4.36158
4.38757
4.41125
4.4326
4.45159
4.4683
4.48275
4.49497
4.50501
4.51293
4.51882
4.52277
4.52488
4.52524
4.52399
4.52119
4.51673
4.51074
4.50332
4.49454
4.48446
4.47315
4.46064
4.44697
4.43218
4.41636
4.39955
4.38179
4.3631
4.3435
4.323
4.30159
4.27927
4.25602
4.23178
4.2066
4.18053
4.15361
4.12586
4.09727
4.06787
4.03766
4.00666
3.9749
3.94238
3.90913
3.87517
3.84051
3.80517
3.76921
3.7327
3.69572
3.65834
3.62064
3.58272
3.54467
3.50661
3.46864
3.43088
3.39342
3.3564
3.31916
3.28068
0.00311319
0.0374063
0.0622475
0.0729813
0.0775035
0.0788279
0.0783076
0.0764991
0.0741691
0.0719279
0.0701412
0.0690181
0.0685536
0.0685206
0.0691888
0.0706335
0.0727808
0.0755747
0.0789722
0.0829386
0.0874405
0.0924435
0.0979158
0.103833
0.110186
0.116984
0.124263
0.132092
0.14058
0.149862
0.160068
0.171328
0.183733
0.19733
0.212114
0.22804
0.245026
0.262983
0.281821
0.301466
0.321856
0.342926
0.364639
0.386994
0.41001
0.433729
0.458214
0.483543
0.509807
0.537101
0.565529
0.595204
0.626245
0.658772
0.692896
0.728727
0.766358
0.805877
0.847354
0.890852
0.936403
0.984024
1.0337
1.0854
1.13905
1.1946
1.25195
1.31103
1.37177
1.43412
1.49805
1.56355
1.6306
1.69933
1.76978
1.8419
1.91562
1.99087
2.06756
2.14555
2.22471
2.30488
2.38589
2.46758
2.54976
2.63226
2.7149
2.79751
2.87985
2.96172
3.0429
3.12321
3.20248
3.2805
3.35704
3.43189
3.5049
3.57609
3.64534
3.71259
3.77776
3.8408
3.90167
3.96036
4.01685
4.07116
4.1233
4.17328
4.22113
4.26685
4.31043
4.35186
4.39112
4.42818
4.46301
4.49559
4.52588
4.55384
4.57944
4.60266
4.62349
4.64199
4.65808
4.67178
4.68308
4.69203
4.6987
4.7032
4.70566
4.70618
4.70496
4.70205
4.69727
4.69079
4.68269
4.67309
4.66205
4.64967
4.63601
4.62115
4.60516
4.58812
4.57002
4.55092
4.53083
4.50981
4.48787
4.46503
4.44131
4.4167
4.39119
4.36475
4.33741
4.30922
4.28022
4.25041
4.21981
4.18842
4.15627
4.12337
4.08974
4.05539
4.02035
3.98464
3.94824
3.91118
3.87353
3.83535
3.79672
3.75769
3.71836
3.6788
3.6391
3.59938
3.55973
3.52026
3.48107
3.44233
3.4034
3.36368
0.00388854
0.0428463
0.0688314
0.0798659
0.0844115
0.0855961
0.0847014
0.0825901
0.0802798
0.0783667
0.0771387
0.0766049
0.0765218
0.0770011
0.0782037
0.0800839
0.0825831
0.0856497
0.0892465
0.0933526
0.0979573
0.103057
0.10866
0.114783
0.121461
0.128745
0.136704
0.145419
0.154962
0.165411
0.17684
0.189295
0.202783
0.217295
0.232791
0.249222
0.266529
0.284662
0.303579
0.32326
0.343632
0.36463
0.386274
0.408602
0.431658
0.455498
0.480203
0.505869
0.532627
0.560538
0.589708
0.62026
0.652336
0.686064
0.721577
0.758983
0.798382
0.839849
0.88345
0.929221
0.97718
1.02731
1.07958
1.1339
1.19019
1.24832
1.30819
1.36972
1.43281
1.4974
1.56332
1.63083
1.7
1.77135
1.84482
1.92028
1.99768
2.07694
2.15794
2.24053
2.32451
2.40972
2.49597
2.5831
2.67081
2.75888
2.84712
2.93527
3.02304
3.11016
3.19635
3.2814
3.36511
3.44725
3.52761
3.60602
3.68239
3.75652
3.8283
3.89765
3.9645
4.02882
4.09061
4.14987
4.20665
4.26098
4.31293
4.36254
4.40987
4.45496
4.49782
4.53846
4.57686
4.61299
4.64686
4.67843
4.70767
4.73453
4.75897
4.78096
4.80049
4.81754
4.8321
4.84418
4.85376
4.8609
4.86566
4.8682
4.86868
4.86743
4.86442
4.85937
4.85246
4.84379
4.83346
4.82158
4.80824
4.7935
4.77745
4.76015
4.74166
4.72207
4.7014
4.6797
4.65703
4.63341
4.6089
4.58351
4.55727
4.53019
4.50229
4.47358
4.44409
4.41381
4.38275