/*--------------------------------*- C++ -*----------------------------------*\
  =========                 |
  \\      /  F ield         | OpenFOAM: The Open Source CFD Toolbox
   \\    /   O peration     | Website:  https://openfoam.org
    \\  /    A nd           | Version:  13
     \\/     M anipulation  |
\*---------------------------------------------------------------------------*/
FoamFile
{
    format      ascii;
    class       volScalarField;
    location    "800";
    object      nut;
}
// * * * * * * * * * * * * * * * * * * * * * * * * * * * * * * * * * * * * * //

dimensions      [0 2 -1 0 0 0 0];

internalField   nonuniform List<scalar> 
12225
(
6.94157e-06
1.39852e-05
1.78798e-05
1.90227e-05
2.07853e-05
1.65969e-05
2.69404e-05
3.53493e-05
2.78614e-05
2.35997e-05
1.90747e-05
1.78358e-05
2.08318e-05
1.7792e-05
1.66373e-05
2.04485e-05
1.52076e-05
2.94647e-05
0.000248873
9.52535e-05
4.65941e-05
2.39289e-05
2.31445e-05
2.028e-05
2.03516e-05
2.72331e-05
2.41847e-05
2.43799e-05
2.02894e-05
1.88487e-05
2.00637e-05
2.39485e-05
2.63622e-05
3.3058e-05
3.76156e-05
4.23304e-05
0.0016767
6.40505e-05
4.62748e-05
2.9098e-05
1.78344e-05
1.10423e-05
7.52058e-06
8.03328e-06
7.01529e-06
8.78253e-06
8.40153e-06
1.02373e-05
1.24959e-05
1.64791e-05
1.64175e-05
2.03604e-05
2.15515e-05
2.14738e-05
9.48161e-05
6.47065e-05
5.42469e-05
3.94071e-05
2.53886e-05
1.25482e-05
1.17408e-05
1.02814e-05
7.72725e-06
8.04368e-06
9.6434e-06
1.19684e-05
1.34998e-05
1.99403e-05
1.84174e-05
1.75428e-05
1.84819e-05
2.0057e-05
4.01945e-05
3.2876e-05
4.03957e-05
3.42423e-05
3.32449e-05
3.31511e-05
2.62548e-05
2.7879e-05
2.29448e-05
2.47249e-05
2.43018e-05
2.15988e-05
2.46656e-05
3.13214e-05
3.81198e-05
4.84799e-05
5.57597e-05
6.30354e-05
0.000112039
2.35063e-05
1.97937e-05
1.98753e-05
2.40568e-05
2.75024e-05
2.79137e-05
2.93125e-05
3.31291e-05
3.6879e-05
3.86924e-05
4.07688e-05
4.86247e-05
5.35393e-05
6.17865e-05
8.14393e-05
9.60821e-05
0.000110123
0.00480033
0.000149042
0.000131696
0.000106926
9.21287e-05
7.72012e-05
7.36131e-05
7.49447e-05
8.33779e-05
8.98425e-05
9.0565e-05
0.000104101
0.000118014
0.000140897
0.000173156
0.000196422
0.000204061
0.000220248
0.00223706
0.000514243
0.000292326
0.00023476
0.00020363
0.000199143
0.000187012
0.000183995
0.000181902
0.000184158
0.000202594
0.000231693
0.000230704
0.00026305
0.000302098
0.000362694
0.000352784
0.000369684
0.000844007
0.0012999
0.000552688
0.000397249
0.000390493
0.0003749
0.000358625
0.000353648
0.000344953
0.00034151
0.000364734
0.000405702
0.00039916
0.000423243
0.00047759
0.000515679
0.000539685
0.000552079
0.000952317
0.000797888
0.000764922
0.000697013
0.000621057
0.000593243
0.00057289
0.000555401
0.000562638
0.000538179
0.000553146
0.000574718
0.000568353
0.000585858
0.000630032
0.000652926
0.000670901
0.00067944
0.000863183
0.000843483
0.000801071
0.000787287
0.000768742
0.000751105
0.000732693
0.000716721
0.000714253
0.000698742
0.000699803
0.000719239
0.000715054
0.00071251
0.000731699
0.000745078
0.000757187
0.000762227
0.000854552
0.000849016
0.000835851
0.000829781
0.000821151
0.000815341
0.000808301
0.000804664
0.000802179
0.000801984
0.0007977
0.000806352
0.000793757
0.000792604
0.000794194
0.000801283
0.000806641
0.00080854
0.000852171
0.000850462
0.000847466
0.000844241
0.000841455
0.000839404
0.000837495
0.000836002
0.000835013
0.000834418
0.000834047
0.000834023
0.000834452
0.00083417
0.000833691
0.000833248
0.000833143
0.000832257
0.000851722
0.000850689
0.000849571
0.000848392
0.000847282
0.000846296
0.000845426
0.000844604
0.000843949
0.000843331
0.000842902
0.000842418
0.000842141
0.000841718
0.000841352
0.000840788
0.000840334
0.000839655
0.000851569
0.000850681
0.000849837
0.000849015
0.000848241
0.000847497
0.000846809
0.000846141
0.00084553
0.000844936
0.000844403
0.000843876
0.000843402
0.000842922
0.000842478
0.00084201
0.000841575
0.000841116
0.000851542
0.000850674
0.000849854
0.00084907
0.000848329
0.000847619
0.000846946
0.000846302
0.000845691
0.000845105
0.000844549
0.000844016
0.00084351
0.000843023
0.00084256
0.000842112
0.000841686
0.000841273
0.000851538
0.000850673
0.000849852
0.00084907
0.000848328
0.00084762
0.000846945
0.000846301
0.000845688
0.000845101
0.000844541
0.000844006
0.000843495
0.000843005
0.000842538
0.00084209
0.000841662
0.000841252
0.000851539
0.000850677
0.000849858
0.000849078
0.000848336
0.000847628
0.000846954
0.00084631
0.000845695
0.000845108
0.000844547
0.00084401
0.000843497
0.000843006
0.000842536
0.000842088
0.000841657
0.000841247
0.000851537
0.000850674
0.000849851
0.00084907
0.000848325
0.000847616
0.00084694
0.000846295
0.000845678
0.000845089
0.000844526
0.000843988
0.000843472
0.00084298
0.000842508
0.000842057
0.000841626
0.000841213
0.000851539
0.000850673
0.000849852
0.000849069
0.000848328
0.00084762
0.000846943
0.000846294
0.000845669
0.00084507
0.000844494
0.000843946
0.00084342
0.000842924
0.000842448
0.000842001
0.000841569
0.000841165
0.00085156
0.000850659
0.000849859
0.00084907
0.000848371
0.000847642
0.000846932
0.000846186
0.000845416
0.000844646
0.000843882
0.000843186
0.000842516
0.000841966
0.000841438
0.000841046
0.000840624
0.000840338
0.00085169
0.0008505
0.000849928
0.000849103
0.000848715
0.00084766
0.000846441
0.000844538
0.000842194
0.000839657
0.00083709
0.000834903
0.000832804
0.000831691
0.000830572
0.000830613
0.000830107
0.000830688
0.000851726
0.000850401
0.000850446
0.000849222
0.000850813
0.000846513
0.00084017
0.000830236
0.000817479
0.000804602
0.000792696
0.000781832
0.00077211
0.000767866
0.000761486
0.000763176
0.000757432
0.000761153
0.000850997
0.000852601
0.000849947
0.000850031
0.000839901
0.000825251
0.000793659
0.000750843
0.000703277
0.000664944
0.000631882
0.000604546
0.000580611
0.000563102
0.000550751
0.000541647
0.000534696
0.000528228
0.00085551
0.000847514
0.000836575
0.000831421
0.000778104
0.000734312
0.000629237
0.000528265
0.000451286
0.000431762
0.000393712
0.000361138
0.000331494
0.000307969
0.000298388
0.000286295
0.000285339
0.000280136
0.000871759
0.000798342
0.000754698
0.000735833
0.000604987
0.00054658
0.000382172
0.000262888
0.000216805
0.000187196
0.000161728
0.000158141
0.000141748
0.000134469
0.000126933
0.000112613
0.000115014
0.000113148
0.00114472
0.000603803
0.000492081
0.000434731
0.000379414
0.000313026
0.000213393
0.000130047
9.73913e-05
6.17542e-05
5.73284e-05
4.06071e-05
3.10093e-05
3.44644e-05
3.34377e-05
3.34118e-05
3.10091e-05
4.15516e-05
0.0024743
0.000299017
0.00019564
0.00015259
0.000118298
7.84248e-05
5.22956e-05
3.02345e-05
1.8406e-05
1.16853e-05
9.61006e-06
8.91535e-06
9.41148e-06
1.09061e-05
1.43061e-05
1.83817e-05
1.78318e-05
2.19009e-05
0.000201755
0.000116976
6.64555e-05
5.08907e-05
3.81962e-05
3.92661e-05
3.86953e-05
3.47643e-05
3.3438e-05
2.95219e-05
2.49687e-05
2.54791e-05
2.44866e-05
2.47387e-05
2.62931e-05
2.92109e-05
3.31797e-05
3.72051e-05
1.35805e-05
1.74671e-05
2.00813e-05
2.16217e-05
2.21416e-05
2.22874e-05
2.21468e-05
2.17748e-05
2.1315e-05
2.08163e-05
2.03182e-05
1.98655e-05
1.94452e-05
1.90751e-05
1.87517e-05
1.84985e-05
1.83079e-05
1.8166e-05
1.36727e-12
1.55681e-10
7.95411e-10
3.13258e-09
1.0637e-08
3.36364e-08
8.59521e-08
1.67436e-07
2.67785e-07
3.70602e-07
4.62235e-07
5.32475e-07
5.80347e-07
5.97599e-07
5.88738e-07
5.67528e-07
5.21974e-07
4.50031e-07
3.84136e-07
3.28361e-07
2.75481e-07
2.24041e-07
1.73678e-07
1.27108e-07
8.51418e-08
5.19474e-08
2.90791e-08
1.54509e-08
8.19118e-09
4.51836e-09
2.69685e-09
1.84658e-09
1.70567e-09
2.64601e-09
5.86308e-09
1.42724e-08
6.75192e-08
1.53099e-07
3.01966e-07
4.23858e-07
4.65805e-07
4.3133e-07
3.5209e-07
2.7433e-07
1.97829e-07
1.64341e-07
1.77639e-07
2.31303e-07
3.11543e-07
4.92541e-07
9.11317e-07
2.26147e-06
7.45839e-06
1.89154e-05
3.28519e-05
4.13196e-05
4.52084e-05
4.37274e-05
4.03308e-05
3.74792e-05
3.864e-05
3.83058e-05
3.75895e-05
3.4328e-05
3.49143e-05
3.62784e-05
3.13466e-05
3.34662e-05
3.3916e-05
3.46585e-05
3.52999e-05
3.5986e-05
3.66013e-05
3.72473e-05
3.78483e-05
3.84589e-05
3.90437e-05
3.96267e-05
4.01932e-05
4.07528e-05
4.13008e-05
4.184e-05
4.23697e-05
4.28906e-05
4.34029e-05
4.39083e-05
4.44056e-05
4.48978e-05
4.53822e-05
4.58621e-05
4.63357e-05
4.68053e-05
4.72706e-05
4.77317e-05
4.81894e-05
4.86435e-05
4.9095e-05
4.95439e-05
4.99918e-05
5.04404e-05
5.08946e-05
5.13604e-05
5.18453e-05
5.2332e-05
5.28262e-05
5.333e-05
5.38427e-05
5.43675e-05
5.49028e-05
5.54515e-05
5.60126e-05
5.65879e-05
5.71773e-05
5.77815e-05
5.84015e-05
5.90367e-05
5.96892e-05
6.03568e-05
6.10421e-05
6.17432e-05
6.24649e-05
6.32067e-05
6.39748e-05
6.47683e-05
6.56022e-05
6.6489e-05
6.7253e-05
6.8058e-05
6.89335e-05
6.97761e-05
7.06815e-05
7.16185e-05
7.25617e-05
7.3518e-05
7.45117e-05
7.55087e-05
7.65582e-05
7.66972e-05
7.64136e-05
7.61367e-05
7.59418e-05
7.56912e-05
7.54291e-05
7.51901e-05
7.50082e-05
7.47463e-05
7.45694e-05
7.4373e-05
7.41178e-05
7.38776e-05
7.36308e-05
7.33815e-05
7.31275e-05
7.28668e-05
7.26008e-05
7.23325e-05
7.20468e-05
7.17707e-05
7.14703e-05
7.11778e-05
7.08852e-05
7.05685e-05
7.02761e-05
6.99491e-05
6.96298e-05
6.92967e-05
6.89576e-05
6.86109e-05
6.82565e-05
6.7896e-05
6.7528e-05
6.71545e-05
6.67728e-05
6.63842e-05
6.59836e-05
6.55659e-05
6.51238e-05
6.46226e-05
6.39971e-05
6.2513e-05
8.31573e-12
1.36179e-09
1.9251e-08
1.04903e-07
4.64172e-07
1.30485e-06
2.91304e-06
5.19671e-06
7.97619e-06
1.1081e-05
1.4185e-05
1.70485e-05
1.94163e-05
2.11482e-05
2.20921e-05
2.23708e-05
2.17669e-05
2.11728e-05
1.88115e-05
1.59129e-05
1.24102e-05
9.25399e-06
6.60365e-06
4.53949e-06
2.91825e-06
1.84058e-06
1.14414e-06
7.23057e-07
4.56999e-07
2.9929e-07
2.13139e-07
1.70595e-07
1.70861e-07
2.19141e-07
4.38087e-07
8.62154e-07
4.33595e-06
9.55893e-06
1.71213e-05
2.23334e-05
2.43946e-05
2.29239e-05
1.98925e-05
1.50217e-05
1.06937e-05
9.94201e-06
1.15216e-05
1.34913e-05
1.4082e-05
1.73783e-05
2.40501e-05
3.49313e-05
4.60721e-05
5.80703e-05
6.82051e-05
7.66991e-05
8.44701e-05
9.33972e-05
0.000105119
0.000117884
0.00013193
0.00014575
0.000158635
0.000169723
0.00018415
0.000199004
0.000204219
0.000218566
0.000228514
0.000239861
0.000250025
0.000260113
0.000269821
0.000279269
0.000288544
0.000297621
0.00030661
0.000315481
0.00032431
0.000333077
0.000341828
0.000350548
0.000359264
0.000367961
0.000376654
0.000385332
0.000394004
0.000402661
0.000411305
0.000419923
0.000428515
0.000437057
0.000445546
0.000453955
0.000462268
0.000470445
0.00047845
0.000486221
0.000493686
0.000500744
0.000507275
0.000513158
0.000518306
0.000523362
0.000528198
0.000532853
0.000537308
0.000541561
0.000545604
0.000549432
0.000553037
0.000556415
0.000559557
0.000562463
0.000565125
0.000567545
0.000569715
0.000571639
0.000573311
0.000574738
0.00057592
0.000576875
0.000577611
0.000578142
0.000578477
0.000578629
0.000578632
0.000578485
0.000578213
0.000577774
0.000577238
0.000576564
0.000575761
0.000574824
0.000573828
0.000572901
0.000572066
0.000571334
0.000570954
0.000570196
0.000569505
0.000568857
0.000568847
0.00056813
0.000567823
0.000566978
0.000566585
0.000565854
0.000565283
0.000564624
0.000563965
0.000563256
0.000562496
0.000561672
0.000560777
0.000559799
0.000558734
0.000557572
0.000556296
0.00055512
0.000553486
0.000552117
0.000550345
0.000548644
0.000546774
0.000544812
0.00054273
0.000540541
0.000538231
0.000535811
0.00053327
0.000530612
0.000527823
0.000524892
0.000521788
0.000518435
0.000514731
0.000510362
0.00050443
0.000488567
2.24491e-11
3.82424e-09
7.10174e-08
4.05724e-07
1.35269e-06
3.33525e-06
6.98577e-06
1.20541e-05
1.8283e-05
2.52916e-05
3.26619e-05
3.97318e-05
4.60657e-05
5.13309e-05
5.52914e-05
5.79488e-05
5.89726e-05
5.93384e-05
5.76755e-05
5.46615e-05
4.99162e-05
4.36016e-05
3.61627e-05
2.87105e-05
2.18382e-05
1.58979e-05
1.10044e-05
7.48e-06
4.87367e-06
3.24418e-06
2.24687e-06
1.68048e-06
1.52586e-06
1.26131e-06
3.13431e-06
6.68562e-06
2.17358e-05
4.2891e-05
5.95666e-05
6.84707e-05
6.87852e-05
6.15412e-05
4.90086e-05
3.66854e-05
3.23195e-05
3.50541e-05
4.11977e-05
4.7948e-05
5.7539e-05
6.8763e-05
8.15656e-05
9.46143e-05
0.000111074
0.000130011
0.000150555
0.000173775
0.000199312
0.000227916
0.000259185
0.000291489
0.000322852
0.000353583
0.00038295
0.000410428
0.000437226
0.000463346
0.00048506
0.000509468
0.000531151
0.000553
0.000573703
0.000593978
0.000613705
0.00063304
0.000652075
0.000670848
0.000689448
0.00070789
0.00072623
0.000744472
0.000762647
0.000780751
0.000798795
0.000816768
0.00083467
0.000852488
0.000870214
0.000887832
0.000905327
0.000922676
0.000939855
0.000956833
0.00097358
0.000990056
0.00100622
0.00102202
0.0010374
0.0010523
0.00106667
0.00108046
0.00109366
0.00110629
0.0011184
0.00113018
0.00114154
0.00115249
0.00116301
0.00117309
0.0011827
0.00119184
0.00120049
0.00120863
0.00121625
0.00122334
0.0012299
0.0012359
0.00124136
0.00124626
0.00125061
0.0012544
0.00125766
0.00126041
0.00126267
0.00126447
0.00126583
0.0012668
0.00126741
0.00126768
0.00126765
0.00126731
0.00126672
0.0012659
0.00126488
0.00126368
0.0012624
0.0012611
0.00125985
0.00125872
0.00125753
0.00125588
0.00125446
0.00125335
0.0012523
0.00125074
0.00124958
0.0012483
0.00124746
0.00124583
0.00124453
0.00124316
0.00124172
0.00124016
0.00123846
0.0012366
0.00123459
0.00123231
0.00122991
0.0012272
0.00122428
0.00122129
0.00121772
0.00121423
0.00121021
0.00120613
0.00120175
0.00119714
0.00119229
0.00118721
0.00118188
0.00117632
0.00117052
0.00116448
0.00115817
0.00115158
0.00114464
0.00113718
0.00112896
0.00111932
0.00110591
0.00107701
7.82822e-11
1.29744e-08
2.00797e-07
9.13594e-07
2.923e-06
7.88989e-06
1.54658e-05
2.54489e-05
3.68166e-05
4.85133e-05
5.98567e-05
7.03282e-05
7.92886e-05
8.63275e-05
9.16315e-05
9.51284e-05
9.66181e-05
9.65332e-05
9.49436e-05
9.16812e-05
8.70452e-05
8.12205e-05
7.3436e-05
6.4224e-05
5.40188e-05
4.37744e-05
3.4056e-05
2.59514e-05
1.94164e-05
1.45188e-05
1.08637e-05
8.5758e-06
7.09206e-06
8.33597e-06
1.4633e-05
3.32866e-05
5.79736e-05
7.64492e-05
8.7378e-05
8.77313e-05
7.76645e-05
6.9152e-05
6.54032e-05
6.61142e-05
7.08118e-05
7.8877e-05
8.98393e-05
0.000100969
0.000113654
0.000133324
0.000154479
0.000181159
0.000213045
0.000248587
0.000287366
0.000329119
0.00037273
0.000417863
0.000463489
0.000508143
0.000551606
0.000593536
0.000633569
0.000671452
0.000708217
0.00074325
0.00077644
0.000809606
0.000841109
0.00087197
0.000901905
0.000931247
0.000960026
0.000988369
0.00101636
0.00104406
0.00107153
0.00109881
0.00112594
0.00115291
0.00117976
0.00120647
0.00123304
0.00125945
0.0012857
0.00131176
0.00133761
0.00136322
0.00138856
0.00141361
0.00143833
0.00146268
0.00148663
0.00151013
0.00153314
0.00155563
0.00157756
0.00159889
0.00161961
0.0016397
0.00165918
0.00167807
0.00169638
0.00171415
0.00173133
0.00174791
0.00176385
0.00177914
0.00179376
0.00180769
0.00182091
0.00183339
0.00184513
0.0018561
0.00186629
0.0018757
0.00188431
0.00189213
0.00189915
0.00190539
0.00191086
0.00191559
0.00191963
0.001923
0.00192575
0.00192791
0.00192955
0.0019307
0.00193138
0.00193164
0.00193154
0.00193111
0.00193039
0.00192945
0.00192835
0.00192714
0.00192592
0.00192467
0.00192289
0.001921
0.00191909
0.00191794
0.00191631
0.00191442
0.00191261
0.00191099
0.00190937
0.00190735
0.00190536
0.00190325
0.00190098
0.00189852
0.00189583
0.00189288
0.00188967
0.00188611
0.00188229
0.00187808
0.00187353
0.00186875
0.0018634
0.00185786
0.00185182
0.00184551
0.00183883
0.00183181
0.00182446
0.00181676
0.00180874
0.00180038
0.0017917
0.0017827
0.00177335
0.00176362
0.00175342
0.00174256
0.00173069
0.00171697
0.00169818
0.00166376
2.57634e-10
3.72368e-08
4.62282e-07
2.30513e-06
7.86003e-06
1.83548e-05
3.33381e-05
5.0505e-05
6.82776e-05
8.50367e-05
9.94399e-05
0.000110572
0.00011884
0.000124803
0.000128398
0.00013018
0.000130303
0.000128943
0.000126278
0.000122304
0.000117008
0.00011081
0.000103405
9.43251e-05
8.38398e-05
7.23258e-05
6.02584e-05
4.89686e-05
3.93088e-05
3.16071e-05
2.5598e-05
2.12048e-05
2.12746e-05
2.80315e-05
4.83436e-05
7.38177e-05
8.99314e-05
9.65542e-05
9.7004e-05
9.47858e-05
9.33539e-05
9.48145e-05
9.99071e-05
0.000108884
0.000119785
0.000129126
0.000143045
0.000164617
0.000192387
0.000224307
0.000262381
0.00030607
0.000354005
0.000404603
0.000457435
0.00051148
0.000566028
0.000620577
0.000674265
0.000726656
0.000777293
0.000826082
0.000873714
0.000919628
0.000963978
0.00100686
0.00104835
0.00108904
0.00112849
0.00116711
0.00120491
0.00124205
0.00127861
0.0013147
0.00135039
0.00138574
0.0014208
0.0014556
0.00149015
0.00152448
0.00155858
0.00159244
0.00162605
0.00165939
0.00169242
0.00172514
0.00175749
0.00178946
0.00182101
0.00185211
0.00188272
0.0019128
0.00194234
0.00197129
0.00199962
0.00202732
0.00205435
0.00208071
0.00210639
0.00213139
0.00215572
0.00217939
0.00220237
0.00222465
0.00224621
0.00226703
0.00228708
0.00230634
0.00232479
0.0023424
0.00235916
0.00237505
0.00239005
0.00240413
0.0024173
0.00242952
0.00244081
0.00245116
0.00246056
0.00246903
0.00247659
0.00248328
0.00248913
0.00249417
0.00249846
0.00250203
0.00250495
0.00250724
0.00250896
0.00251015
0.00251087
0.00251117
0.00251111
0.00251074
0.00251013
0.00250929
0.00250829
0.00250717
0.00250559
0.00250378
0.00250211
0.00250045
0.00249867
0.00249661
0.00249451
0.00249243
0.00249029
0.00248786
0.0024853
0.00248255
0.00247956
0.0024763
0.00247274
0.00246884
0.0024646
0.00245994
0.00245492
0.00244945
0.00244356
0.00243729
0.00243049
0.00242333
0.00241568
0.00240762
0.00239915
0.00239027
0.00238098
0.0023713
0.00236122
0.00235077
0.00233994
0.00232873
0.00231713
0.0023051
0.00229255
0.00227931
0.00226501
0.00224878
0.00222731
0.00219237
8.0677e-10
9.29422e-08
1.19368e-06
6.1944e-06
1.92569e-05
3.94033e-05
6.33644e-05
8.74878e-05
0.000108528
0.000125385
0.000138024
0.000147401
0.000153275
0.000156561
0.000157854
0.000157566
0.000155971
0.000153202
0.00014941
0.000144539
0.000138591
0.000131933
0.000124181
0.000115065
0.00010467
9.09871e-05
7.55112e-05
6.08034e-05
4.73928e-05
3.70199e-05
3.27874e-05
3.44499e-05
4.56105e-05
6.74429e-05
8.89403e-05
0.000103615
0.000111729
0.000115125
0.000116889
0.000120049
0.000126685
0.000137589
0.000144736
0.000154361
0.000169449
0.000192275
0.000221141
0.000256371
0.000298446
0.000345624
0.000398301
0.000454328
0.000512673
0.000572164
0.000632492
0.000693066
0.000753417
0.000813187
0.000871465
0.000928579
0.000984752
0.00103975
0.00109283
0.00114437
0.00119462
0.00124362
0.00129144
0.0013383
0.00138414
0.00142914
0.00147336
0.00151692
0.00155989
0.00160234
0.00164434
0.00168594
0.00172715
0.00176802
0.00180854
0.00184872
0.00188855
0.001928
0.00196707
0.00200572
0.00204392
0.00208165
0.00211886
0.00215552
0.00219162
0.0022271
0.00226196
0.00229616
0.00232967
0.00236249
0.00239458
0.00242594
0.00245655
0.00248641
0.00251552
0.00254386
0.00257147
0.00259831
0.00262438
0.00264966
0.00267412
0.00269777
0.00272057
0.0027425
0.00276356
0.00278371
0.00280295
0.00282126
0.00283862
0.00285501
0.00287042
0.00288484
0.00289826
0.00291068
0.0029221
0.00293252
0.00294197
0.00295047
0.00295805
0.00296476
0.00297062
0.00297567
0.00297998
0.00298357
0.0029865
0.0029888
0.00299054
0.00299178
0.00299257
0.00299297
0.00299303
0.00299302
0.00299246
0.00299148
0.00299016
0.0029886
0.00298696
0.00298522
0.0029833
0.00298115
0.00297883
0.00297638
0.00297379
0.00297093
0.00296783
0.00296448
0.00296083
0.00295686
0.00295253
0.00294782
0.0029427
0.00293715
0.00293116
0.00292471
0.00291779
0.00291042
0.00290254
0.00289421
0.0028854
0.00287613
0.00286642
0.00285626
0.00284567
0.00283466
0.00282323
0.0028114
0.00279917
0.00278657
0.00277357
0.00276016
0.00274626
0.00273173
0.00271623
0.00269896
0.00267731
0.00264407
2.47936e-09
2.38653e-07
3.0968e-06
1.60215e-05
4.04014e-05
7.02234e-05
9.80706e-05
0.000121489
0.000140033
0.0001543
0.000164769
0.000171305
0.000174956
0.000176381
0.000176099
0.000174498
0.000171838
0.000168234
0.000163572
0.000157838
0.000151185
0.00014356
0.000134606
0.0001214
0.00010386
8.84634e-05
7.51806e-05
6.37011e-05
5.54847e-05
5.36209e-05
6.13111e-05
7.83375e-05
9.8097e-05
0.000114621
0.000127168
0.000135159
0.000140055
0.000144671
0.000152135
0.000164283
0.000168662
0.000177604
0.000192476
0.000215409
0.000243739
0.000279294
0.000321476
0.000369986
0.00042406
0.000481955
0.000542876
0.00060543
0.000669056
0.000733206
0.000797523
0.000861558
0.000924777
0.000987232
0.00104921
0.0011106
0.00117032
0.00122868
0.00128577
0.00134163
0.00139636
0.00145001
0.00150263
0.00155432
0.00160512
0.00165511
0.00170437
0.00175295
0.00180092
0.00184832
0.00189521
0.00194161
0.00198755
0.00203302
0.00207803
0.00212257
0.00216662
0.00221016
0.00225316
0.00229559
0.00233743
0.00237863
0.00241916
0.00245901
0.00249814
0.00253652
0.00257414
0.00261098
0.00264704
0.00268229
0.00271674
0.00275038
0.00278319
0.00281518
0.00284635
0.00287667
0.00290614
0.00293476
0.00296255
0.0029895
0.00301561
0.00304088
0.00306531
0.00308889
0.00311161
0.00313344
0.00315436
0.00317437
0.00319344
0.00321155
0.00322869
0.00324485
0.00326002
0.00327417
0.00328732
0.00329946
0.0033106
0.00332077
0.00332998
0.00333826
0.00334564
0.00335216
0.00335785
0.00336275
0.00336689
0.00337033
0.00337311
0.0033753
0.00337697
0.00337833
0.00337927
0.00337965
0.00337947
0.00337887
0.00337788
0.00337657
0.00337502
0.00337324
0.00337122
0.00336892
0.00336637
0.00336359
0.00336058
0.00335727
0.00335366
0.00334975
0.0033455
0.00334089
0.0033359
0.0033305
0.00332468
0.00331841
0.0033117
0.00330452
0.00329687
0.00328875
0.00328015
0.00327108
0.00326153
0.00325153
0.00324107
0.00323018
0.00321885
0.0032071
0.00319494
0.00318238
0.00316943
0.00315612
0.00314245
0.00312841
0.00311394
0.00309895
0.00308317
0.00306593
0.00304522
0.00301522
7.02376e-09
6.13811e-07
8.04946e-06
3.21137e-05
6.63664e-05
0.000100988
0.000130642
0.000153486
0.000169707
0.000180302
0.000186343
0.000189563
0.000190549
0.000189749
0.000187588
0.000184365
0.000180223
0.000175121
0.00016921
0.000162523
0.000155062
0.000146532
0.000133225
0.000115349
9.99267e-05
8.76336e-05
7.91254e-05
7.69521e-05
8.21033e-05
9.12155e-05
0.0001088
0.000129858
0.000149325
0.000159594
0.000166862
0.000173139
0.000180877
0.000187976
0.000191219
0.000199463
0.000213096
0.000234449
0.000261301
0.000295497
0.000335815
0.000382709
0.000435282
0.000492754
0.000553898
0.000617326
0.000682235
0.000747926
0.000813994
0.000880157
0.000946145
0.00101154
0.00107678
0.00114212
0.00120614
0.00126914
0.00133106
0.00139191
0.00145172
0.00151052
0.00156835
0.00162525
0.00168125
0.00173641
0.00179075
0.00184434
0.00189722
0.00194943
0.00200099
0.00205195
0.00210233
0.00215215
0.00220141
0.0022501
0.00229822
0.00234575
0.00239265
0.0024389
0.00248447
0.00252934
0.00257346
0.00261681
0.00265937
0.0027011
0.002742
0.00278201
0.00282115
0.00285943
0.00289683
0.00293335
0.002969
0.00300377
0.00303768
0.00307072
0.00310289
0.00313419
0.0031646
0.00319417
0.00322291
0.00325083
0.00327794
0.00330424
0.00332972
0.00335437
0.00337819
0.00340117
0.0034233
0.00344457
0.00346495
0.00348444
0.003503
0.00352063
0.00353731
0.00355302
0.00356774
0.00358148
0.00359424
0.00360602
0.00361683
0.00362669
0.00363561
0.00364362
0.00365073
0.00365699
0.00366242
0.00366704
0.00367094
0.00367423
0.00367697
0.0036791
0.0036807
0.00368161
0.0036819
0.00368166
0.00368094
0.0036798
0.00367829
0.00367645
0.00367428
0.00367177
0.00366895
0.00366581
0.00366237
0.0036586
0.00365449
0.00365004
0.00364523
0.00364004
0.00363446
0.00362846
0.00362205
0.0036152
0.00360791
0.00360017
0.00359198
0.00358333
0.00357422
0.00356466
0.00355464
0.00354418
0.00353329
0.00352197
0.00351024
0.00349809
0.00348555
0.00347262
0.00345934
0.00344571
0.00343176
0.00341749
0.00340287
0.00338784
0.00337222
0.00335546
0.00333619
0.00331005
1.71281e-08
1.46587e-06
1.67854e-05
5.21696e-05
9.31603e-05
0.000129125
0.000157355
0.000177487
0.000190849
0.000198666
0.000202151
0.000202344
0.000200243
0.000196636
0.000192026
0.000186689
0.000180709
0.000174118
0.000166889
0.000158989
0.000150639
0.000141314
0.000128845
0.000117106
0.000109593
0.00010437
0.000101863
0.000107572
0.000120549
0.000137016
0.00015493
0.000171824
0.000185896
0.000196391
0.000202926
0.000206748
0.000211224
0.000219198
0.000231537
0.000250583
0.000275165
0.000306781
0.000344294
0.000388064
0.000437369
0.000492062
0.000551132
0.000613483
0.000677873
0.000743409
0.000809715
0.000876404
0.00094323
0.00100973
0.00107612
0.00114303
0.00120961
0.00127516
0.00133988
0.00140374
0.00146674
0.00152886
0.00159013
0.00165055
0.00171015
0.00176894
0.00182696
0.00188422
0.00194075
0.00199658
0.00205172
0.0021062
0.00216003
0.00221322
0.00226578
0.00231771
0.00236901
0.00241967
0.00246968
0.00251901
0.00256758
0.00261537
0.00266237
0.00270854
0.00275386
0.00279828
0.0028418
0.00288439
0.00292607
0.00296689
0.00300674
0.00304561
0.0030835
0.00312043
0.0031564
0.00319143
0.00322553
0.00325871
0.00329101
0.00332244
0.00335304
0.00338284
0.00341183
0.00344004
0.00346748
0.00349414
0.00352005
0.00354521
0.00356961
0.00359326
0.00361614
0.00363825
0.00365956
0.00368008
0.00369976
0.0037186
0.00373656
0.00375363
0.00376978
0.003785
0.00379927
0.0038126
0.00382498
0.00383641
0.00384688
0.00385642
0.003865
0.00387268
0.00387947
0.00388536
0.0038905
0.00389491
0.00389863
0.00390164
0.003904
0.00390559
0.00390648
0.00390673
0.00390639
0.00390551
0.00390416
0.00390236
0.00390014
0.00389751
0.0038945
0.00389112
0.00388737
0.00388326
0.00387879
0.00387395
0.00386874
0.00386315
0.00385716
0.00385079
0.00384401
0.00383683
0.00382924
0.00382124
0.00381283
0.00380399
0.00379474
0.00378508
0.003775
0.00376452
0.00375364
0.00374237
0.00373071
0.00371867
0.00370627
0.00369351
0.00368042
0.00366702
0.00365334
0.00363939
0.00362517
0.00361064
0.00359569
0.00357989
0.00356206
0.00353947
3.62412e-08
3.23886e-06
2.90802e-05
7.44864e-05
0.000119967
0.000156514
0.000182231
0.000199255
0.000208879
0.000212549
0.000212032
0.000208693
0.000203521
0.000197197
0.000190103
0.000182345
0.000174227
0.000165448
0.000156362
0.000147854
0.000139565
0.000131546
0.00012481
0.000120628
0.000120533
0.000125358
0.000134867
0.000147423
0.000162183
0.000177374
0.000191715
0.000204104
0.000213548
0.000220366
0.00022691
0.000235778
0.000247721
0.000264472
0.000286564
0.000314973
0.000349141
0.000389264
0.000434646
0.000485199
0.000540283
0.000599332
0.000661303
0.000725296
0.000790477
0.00085637
0.000922664
0.000989045
0.00105523
0.00112177
0.0011886
0.00125486
0.00132052
0.00138552
0.00144982
0.0015134
0.00157627
0.00163843
0.00169989
0.00176064
0.00182071
0.00188009
0.0019388
0.00199687
0.00205429
0.00211107
0.00216721
0.00222272
0.00227759
0.00233177
0.0023853
0.00243818
0.00249039
0.00254192
0.00259277
0.00264296
0.00269257
0.00274136
0.00278924
0.00283616
0.0028821
0.00292702
0.00297088
0.00301368
0.00305536
0.00309588
0.00313537
0.00317384
0.00321132
0.00324783
0.00328339
0.00331802
0.00335174
0.00338457
0.00341655
0.00344769
0.00347803
0.00350758
0.00353637
0.00356442
0.00359175
0.00361837
0.00364432
0.0036696
0.00369422
0.00371819
0.00374151
0.00376417
0.00378616
0.00380746
0.00382805
0.00384791
0.003867
0.0038853
0.00390277
0.00391939
0.00393514
0.00395
0.00396394
0.00397698
0.00398903
0.00400021
0.00401035
0.00401947
0.00402773
0.00403507
0.00404155
0.00404721
0.00405204
0.00405609
0.00405934
0.00406175
0.00406337
0.00406423
0.00406439
0.0040639
0.0040628
0.00406116
0.00405901
0.00405637
0.00405328
0.00404976
0.00404583
0.0040415
0.00403679
0.00403169
0.00402621
0.00402036
0.00401413
0.00400753
0.00400056
0.00399323
0.00398553
0.00397747
0.00396905
0.00396026
0.00395111
0.00394159
0.00393172
0.0039215
0.00391092
0.00389999
0.00388872
0.00387711
0.00386516
0.0038529
0.00384034
0.0038275
0.00381442
0.00380111
0.00378761
0.00377388
0.00375987
0.00374527
0.00372903
0.00371026
6.63271e-08
6.3647e-06
4.20113e-05
9.38315e-05
0.000141715
0.000178187
0.000202691
0.000216353
0.00022194
0.000221849
0.000217953
0.000211629
0.000203821
0.000195019
0.000186097
0.000176868
0.000167791
0.000159585
0.000152392
0.000146844
0.000142589
0.000140334
0.000140819
0.000144386
0.000151118
0.000160646
0.000172243
0.000184926
0.000197901
0.000210245
0.000220977
0.000229858
0.000238371
0.000248623
0.000261214
0.000276607
0.000296535
0.000321793
0.000352492
0.000388665
0.000429846
0.000475848
0.000526177
0.000580525
0.000638303
0.000698867
0.000761401
0.000825196
0.000889693
0.000954575
0.0010194
0.00108432
0.00114984
0.00121492
0.00127965
0.00134393
0.00140765
0.0014708
0.00153338
0.00159538
0.00165682
0.00171772
0.00177808
0.00183791
0.0018972
0.00195591
0.0020141
0.00207179
0.00212894
0.00218554
0.00224156
0.00229702
0.00235197
0.00240658
0.00246061
0.00251397
0.00256662
0.00261854
0.00266972
0.0027201
0.00276954
0.00281804
0.00286555
0.00291208
0.0029576
0.00300207
0.00304545
0.00308774
0.00312892
0.00316905
0.00320811
0.00324614
0.00328316
0.00331919
0.00335426
0.00338839
0.00342161
0.00345395
0.00348543
0.00351609
0.00354595
0.00357506
0.00360343
0.00363111
0.00365812
0.0036845
0.00371028
0.00373547
0.00376011
0.00378421
0.00380776
0.00383079
0.00385327
0.00387519
0.00389654
0.00391728
0.00393739
0.00395682
0.00397553
0.0039935
0.00401069
0.00402706
0.00404259
0.00405731
0.00407095
0.00408373
0.00409555
0.00410641
0.0041163
0.00412523
0.00413322
0.00414029
0.00414646
0.00415174
0.00415611
0.00415955
0.00416209
0.00416376
0.00416462
0.0041647
0.00416407
0.00416277
0.00416085
0.00415838
0.00415538
0.00415189
0.00414794
0.00414355
0.00413876
0.00413356
0.00412798
0.00412202
0.0041157
0.00410904
0.00410203
0.00409471
0.00408707
0.00407912
0.00407086
0.0040623
0.00405344
0.00404427
0.00403481
0.00402504
0.00401498
0.00400462
0.00399397
0.00398301
0.00397176
0.00396023
0.00394843
0.0039364
0.00392415
0.00391172
0.00389913
0.0038864
0.0038735
0.00386019
0.00384555
0.00383016
1.03576e-07
1.06098e-05
5.68042e-05
0.000115404
0.00016468
0.000199359
0.000220266
0.000230244
0.000232368
0.000229216
0.000222795
0.000214317
0.000205141
0.000195844
0.000186805
0.000178871
0.000171778
0.000166306
0.000162893
0.000161358
0.000161776
0.000164398
0.000169296
0.000176311
0.000185119
0.000195272
0.00020629
0.000217486
0.0002281
0.000237786
0.000247609
0.000258759
0.00027195
0.000287469
0.000306004
0.000328647
0.000356079