/*--------------------------------*- C++ -*----------------------------------*\
  =========                 |
  \\      /  F ield         | OpenFOAM: The Open Source CFD Toolbox
   \\    /   O peration     | Website:  https://openfoam.org
    \\  /    A nd           | Version:  13
     \\/     M anipulation  |
\*---------------------------------------------------------------------------*/
FoamFile
{
    format      ascii;
    class       volScalarField;
    location    "800";
    object      omega;
}
// * * * * * * * * * * * * * * * * * * * * * * * * * * * * * * * * * * * * * //

dimensions      [0 0 -1 0 0 0 0];

internalField   nonuniform List<scalar> 
12225
(
31477.7
37249.5
42237.6
51453.4
44401.6
41513.9
31477.7
31477.7
42575.3
45853.9
50229.5
46425.2
48001.5
49516.5
48159.3
41936.1
37951.9
31477.7
1308.19
4376.8
9690.51
18633
17958.9
19356.6
18545.3
17915.7
20380.3
18306.9
21266.1
22290.5
22157.3
21920.1
21570.9
20398.5
19449.2
18890.1
207.453
4895.52
4944.86
5497.81
5909
6363.7
8358.54
7404.33
9487.99
8088.12
8739.91
8476.71
8565.79
8657.58
9842.42
9108.53
9108.15
9738.51
3987.08
4455.32
4543.28
4514.27
4584.17
6144.96
5124.42
5137.8
6148.99
6471.13
6839.35
6004.55
6725.23
5889.65
6430.95
6691.65
6397.02
6264.48
8223.39
8809.53
6476.73
6575.72
5771.61
5055.53
5471.24
4512.56
5227.03
4650.71
4625.3
5072.64
5064.41
4684.41
4171.86
3729.8
3303.05
3022.69
3611.77
11627.1
11745.5
9918.71
8289.69
7025.01
6277.97
5823.04
5398.12
5078.29
4620.24
4316.22
4068.47
3749.8
3306.94
2846.21
2436.15
2138.97
0.384674
2320.31
2342.59
2693.35
2902.76
3351.94
3400.59
3277.79
3013.38
2872.76
2756.06
2393.46
2121.96
1903.8
1668.65
1465.87
1424.37
1339.09
167.698
702.905
1182.69
1402.25
1573.28
1580.21
1639.67
1644.47
1643.11
1615.39
1460.48
1278.88
1287.48
1177.06
1029
874.509
909.439
867.735
442.708
283.078
649.719
884.37
885.588
912.595
940.282
947.71
955.346
959.752
894.456
813.174
838.581
784.419
697.629
649.181
620.801
604.6
392.172
464.798
478.481
519.649
577.119
600.189
616.443
632.402
621.573
644.811
627.199
602.773
609.651
589.62
546.849
525.976
510.261
501.582
433.1
440.306
459.926
464.617
472.46
480.711
490.011
498.377
498.031
506.919
504.467
489.223
490.657
490.66
476.164
465.84
456.776
451.934
437.487
437.61
441.662
442.171
444.183
444.919
446.528
446.42
445.89
444.176
444.882
438.487
443.883
442.916
440.483
435.009
430.66
428.118
438.687
436.892
435.854
435.031
434.101
432.908
431.786
430.552
429.197
427.722
426.243
424.636
422.886
421.515
420.313
419.102
417.804
416.896
438.91
436.771
434.813
433.002
431.277
429.593
427.968
426.415
424.885
423.419
421.953
420.582
419.186
417.917
416.688
415.604
414.529
413.608
438.986
436.772
434.674
432.69
430.802
429.008
427.294
425.668
424.109
422.629
421.204
419.853
418.549
417.318
416.134
415.024
413.956
412.957
438.999
436.773
434.659
432.653
430.746
428.934
427.209
425.568
424.005
422.517
421.098
419.746
418.455
417.225
416.05
414.931
413.861
412.843
439
436.772
434.655
432.646
430.736
428.921
427.194
425.55
423.985
422.494
421.074
419.719
418.427
417.196
416.02
414.898
413.826
412.805
439
436.769
434.65
432.638
430.727
428.909
427.18
425.535
423.968
422.475
421.053
419.697
418.403
417.17
415.992
414.869
413.796
412.771
439
436.771
434.653
432.642
430.731
428.914
427.185
425.54
423.973
422.481
421.058
419.702
418.408
417.174
415.996
414.872
413.798
412.773
439
436.773
434.655
432.646
430.735
428.92
427.192
425.55
423.988
422.501
421.083
419.732
418.442
417.21
416.033
414.907
413.834
412.804
438.991
436.781
434.657
432.653
430.727
428.922
427.212
425.608
424.108
422.69
421.352
420.061
418.833
417.62
416.465
415.313
414.235
413.156
438.934
436.857
434.632
432.652
430.595
428.92
427.419
426.288
425.465
424.807
424.259
423.631
423.037
422.056
421.149
419.781
418.727
417.252
438.949
436.869
434.406
432.644
429.627
429.288
430.024
432.413
436.459
440.794
444.929
448.79
452.194
452.734
454.639
452.173
453.934
450.569
439.357
435.693
434.752
432.305
435.069
438.758
451.84
472.124
498.019
521.382
542.903
561.852
579.598
593.356
602.066
609.338
611.423
616.194
437.019
438.458
441.608
441.724
467.982
486.237
554.85
642.076
729.323
743.157
793.414
843.853
902.771
957.499
979.43
1012.05
1000.37
1013.88
429.009
465.555
489.262
497.695
593.019
628.215
841.011
1130.08
1266.43
1351.88
1445.87
1414.38
1557.57
1616.75
1692.52
1893.41
1810.38
1862.29
327.168
615.635
748.395
834.338
902.339
978.073
1228.57
1649.26
1810.7
2270.64
2075.68
2641.45
3367.27
2965.32
2996.34
3026.51
3624.54
3330.96
151.37
1248.66
1888.1
2225.32
2389.74
2715.68
2883.48
3448.52
4018.52
4522.03
4568.72
4835.7
4628.52
4672.2
4769.51
5621.68
6910.32
6043.17
1838.84
3655.33
6130.8
8175.29
9626.19
9921.08
10259.1
10817.9
11261.6
11519.4
11528.6
11625.4
11642.4
11643.4
11602.4
11521.6
11519.7
11417.9
18117.5
23996.5
25882.4
26697
26889
26784.4
26552.2
26152.8
25702.2
25238.3
24814.7
24421
24067.1
23755.1
23490.5
23279.8
23115.6
22993
11463.2
2514.24
2516.41
2518.61
2520.83
2523.07
2525.32
2527.6
2529.9
2532.22
2534.57
2536.93
2539.31
2541.72
2544.15
2546.6
2549.08
2551.57
2554.09
2556.64
2559.2
2561.79
2564.41
2567.05
2569.71
2572.4
2575.12
2577.86
2580.62
2583.41
2586.23
2589.08
2591.95
2594.85
2597.77
2600.73
2603.71
2606.72
2609.76
2612.82
2615.92
2619.05
2622.2
2625.39
2628.61
2631.86
2635.14
2638.45
2641.79
2645.17
2648.58
2652.02
2655.5
2659.01
2662.55
2666.13
2669.74
2673.39
2677.08
2680.8
2684.56
2688.35
2692.19
3320.21
3430.88
2703.92
3373.97
3412.71
3517.32
3603.34
3684.41
3767.99
3844.98
3922.97
3997.3
4071.28
4143.03
4213.95
4283.22
4351.45
4418.28
4483.95
4548.27
4611.37
4673.05
4733.49
4792.43
4850.09
4906.17
4960.84
5013.88
5065.32
5115.12
5163.2
5209.56
5254.12
5296.87
5337.79
5376.94
5414.45
5450.59
5485.83
5519.86
5552.37
5583.41
5613.06
5641.21
5668
5693.32
5717.26
5739.79
5760.93
5780.73
5799.16
5816.34
5832.16
5846.85
5860.23
5872.54
5883.65
5893.85
5903.09
5911.74
5919.66
5927.5
5935.62
5940.16
5944.12
5947.47
5950.73
5953.44
5955.84
5958.8
5961.95
5964.75
5967.45
5967.57
5970.69
5970.83
5971.31
5973.39
5978.89
5975.87
5975.91
5979.83
5985.72
5982.63
5989.54
5988.18
5987.83
5986.29
5984.37
5981.82
5978.63
5974.89
5970.15
5965.29
5959.15
5953.11
5945.73
5938.08
5930.74
5921.79
5913.01
5903.1
5892.84
5881.93
5870.58
5858.69
5846.44
5833.72
5820.7
5807.23
5793.32
5778.6
5762.59
5744.53
5721.67
5688.02
5573.08
11463.2
1993.35
961.3
754.757
626.145
592.883
594.228
586.5
572.17
550.17
527.843
506.244
488.305
474.356
465.856
460.278
463.168
464.221
495.421
540.845
619.17
713.974
817.939
921.928
1017.27
1092.84
1140.92
1139.12
1115
1047.55
937.052
806.25
665.291
576.836
514.814
463.204
432.835
429.472
436.087
454.949
483.233
511.184
556.535
631.882
724.477
798.073
872.076
1061.93
1374.58
1645.23
1821
1940.82
2005.57
2025.34
2019.72
1981.36
1941.43
1898.05
1844.3
1775.49
1741.06
1699.39
1682.94
1681.83
1658.36
1629.34
1680.85
1661.9
1673.43
1674.66
1681.83
1689.04
1697.21
1706.34
1715.61
1725.41
1735.11
1744.94
1754.51
1763.95
1773.05
1781.86
1790.27
1798.32
1805.94
1813.17
1819.94
1826.29
1832.18
1837.64
1842.64
1847.25
1851.46
1855.32
1858.85
1862.15
1865.3
1868.45
1871.79
1875.61
1880.24
1886.03
1893.29
1900.02
1906.62
1912.95
1919.07
1924.97
1930.67
1936.16
1941.45
1946.56
1951.49
1956.25
1960.84
1965.28
1969.57
1973.73
1977.77
1981.69
1985.54
1989.32
1993.04
1996.71
2000.34
2003.89
2007.11
2010.31
2013.39
2016.47
2019.45
2022.43
2025.4
2028.35
2031.15
2033.76
2035.97
2037.9
2038.82
2039.88
2041
2041.85
2041.18
2043.34
2043.15
2044.73
2044.73
2045.79
2045.89
2045.71
2045.27
2044.64
2043.8
2042.74
2041.49
2040.03
2038.38
2036.58
2034.64
2031.9
2030.23
2027.27
2025.17
2022.25
2019.39
2016.31
2013.12
2009.8
2006.37
2002.84
1999.24
1995.59
1991.91
1988.25
1984.59
1981.02
1977.64
1974.8
1971.96
1980.57
11463.2
2005.29
813.359
629.172
645.323
633.402
594.315
537.62
480.654
429.127
384.774
349.276
321.125
299.031
282.148
269.408
260.743
254.446
253.615
256.618
266.365
284.938
315.127
355.516
406.802
462.719
523.273
570.012
609.432
611.004
600.379
570.499
513.773
452.431
389.012
349.496
339.299
343.383
355.478
375.777
411.074
472.296
568.729
700.434
856.294
1020.7
1160.78
1287.26
1408.05
1485.08
1507.11
1509.31
1478.19
1429.76
1377.35
1324.25
1279.08
1237.42
1198.19
1168.52
1146.6
1129.41
1118.69
1113.4
1109.92
1106.87
1113.28
1112.33
1116.15
1118.66
1122.55
1126.58
1130.97
1135.54
1140.16
1144.83
1149.43
1153.97
1158.38
1162.68
1166.81
1170.79
1174.61
1178.27
1181.77
1185.12
1188.31
1191.35
1194.26
1197.04
1199.72
1202.3
1204.82
1207.3
1209.77
1212.27
1214.85
1217.54
1220.41
1223.47
1226.74
1230.15
1233.64
1236.96
1240.22
1243.37
1246.43
1249.41
1252.31
1255.13
1257.87
1260.54
1263.13
1265.66
1268.11
1270.51
1272.84
1275.12
1277.35
1279.53
1281.67
1283.77
1285.84
1287.87
1289.86
1291.8
1293.64
1295.45
1297.18
1298.87
1300.5
1302.08
1303.6
1305.07
1306.43
1307.65
1308.7
1309.54
1310.13
1310.7
1311.23
1311.38
1311.48
1312.11
1312.1
1312.14
1311.55
1311.58
1311.09
1310.42
1309.6
1308.63
1307.53
1306.29
1304.9
1303.43
1301.76
1300.05
1298.2
1296.07
1294.16
1291.85
1289.7
1287.29
1284.82
1282.26
1279.61
1276.9
1274.12
1271.29
1268.43
1265.55
1262.68
1259.86
1257.13
1254.61
1252.47
1251.22
1251.61
1261.03
11463.2
2073.35
1030.24
930.32
822.919
696.688
584.037
486.795
413.685
359.594
317.862
284.769
259.22
239.664
224.771
213.522
205.22
199.315
195.615
194.526
195.657
198.972
207.077
220.295
240.073
266.034
298.879
332.612
365.433
390.2
401.629
400.789
384.861
361.784
356.354
379.895
427.783
460.35
491.185
534.021
599.226
698.569
824.53
947.056
1043.19
1109.98
1171.92
1220.75
1236.67
1205.89
1183.1
1143.01
1096.95
1053.82
1015.65
983.092
956.94
935.174
917.574
905.067
895.863
889.662
886.277
885.398
885.361
886.592
889.25
891.139
894.101
897.101
900.475
903.942
907.511
911.11
914.699
918.255
921.749
925.174
928.516
931.776
934.948
938.038
941.048
943.981
946.845
949.644
952.384
955.073
957.715
960.322
962.901
965.465
968.026
970.595
973.182
975.802
978.463
981.17
983.923
986.712
989.516
992.301
995.042
997.703
1000.3
1002.83
1005.3
1007.71
1010.05
1012.33
1014.55
1016.7
1018.8
1020.83
1022.8
1024.71
1026.56
1028.35
1030.08
1031.76
1033.39
1034.96
1036.48
1037.95
1039.37
1040.73
1042.01
1043.23
1044.39
1045.49
1046.52
1047.49
1048.38
1049.21
1049.94
1050.56
1051.04
1051.36
1051.6
1051.82
1051.97
1051.65
1051.5
1051.4
1051.12
1050.61
1049.93
1049.3
1048.47
1047.5
1046.41
1045.19
1043.86
1042.41
1040.83
1039.17
1037.37
1035.48
1033.49
1031.34
1029.2
1026.88
1024.55
1022.08
1019.55
1016.94
1014.26
1011.52
1008.73
1005.9
1003.04
1000.16
997.298
994.484
991.781
989.291
987.17
985.818
986.079
991.515
11463.2
2363.87
1411.81
1076.26
843.541
645.725
496.619
399.969
333.273
286.368
253.315
230.34
213.539
200.64
190.49
182.516
176.421
171.971
168.988
167.533
167.717
169.076
172.235
178.388
188.022
201.812
220.776
243.167
266.536
287.959
303.482
312.845
333.379
372.959
442.835
496.291
537.962
584.401
643.774
715.117
789.377
860.898
923.291
975.291
1021.71
1047.78
1055
1031.85
998.935
969.513
935.748
901.015
869.307
842.99
821.072
803.605
789.9
779.184
771.323
766.057
763.125
762.089
761.947
762.968
764.84
767.328
770.338
773.392
776.801
780.306
783.926
787.577
791.236
794.873
798.469
802.013
805.497
808.921
812.283
815.588
818.839
822.043
825.204
828.33
831.425
834.494
837.542
840.573
843.59
846.595
849.595
852.591
855.589
858.589
861.593
864.599
867.606
870.608
873.594
876.553
879.467
882.324
885.119
887.845
890.504
893.096
895.619
898.074
900.458
902.772
905.012
907.179
909.272
911.288
913.226
915.085
916.864
918.562
920.181
921.72
923.182
924.567
925.878
927.11
928.269
929.348
930.348
931.268
932.112
932.878
933.569
934.179
934.711
935.158
935.512
935.774
935.924
935.836
935.759
935.613
935.316
934.907
934.431
933.936
933.317
932.553
931.645
930.673
929.573
928.354
927.024
925.58
924.027
922.362
920.585
918.708
916.717
914.63
912.444
910.138
907.77
905.29
902.74
900.097
897.377
894.583
891.723
888.803
885.832
882.818
879.774
876.718
873.679
870.692
867.809
865.118
862.743
860.989
860.489
862.911
11463.2
2884.74
1596.48
1081.38
737.321
520.836
393.127
315.583
267.898
236.818
215.309
199.654
187.846
178.617
171.244
165.32
160.653
157.186
154.84
153.722
153.887
154.981
157.52
162.02
168.791
178.6
192.28
209.936
230.973
256.094
290.664
337.323
403.967
478.772
539.202
588.09
639.474
692.816
743.394
788.457
828.3
865.185
901.408
918.172
920.082
902.105
879.836
855.067
827.613
801.886
775.996
753.43
734.426
719.223
707.045
697.689
690.764
685.9
683.267
682.135
681.998
682.769
684.718
687.414
690.584
694.107
697.907
701.824
705.881
709.99
714.124
718.248
722.343
726.393
730.392
734.338
738.23
742.073
745.873
749.637
753.37
757.081
760.775
764.458
768.133
771.804
775.472
779.138
782.801
786.461
790.114
793.76
797.397
801.019
804.624
808.205
811.755
815.266
818.73
822.136
825.473
828.734
831.92
835.025
838.048
840.987
843.84
846.608
849.286
851.872
854.361
856.753
859.044
861.231
863.311
865.283
867.145
868.896
870.536
872.065
873.486
874.799
876.009
877.115
878.12
879.025
879.831
880.541
881.159
881.685
882.122
882.469
882.724
882.885
882.947
882.848
882.658
882.397
882.052
881.621
881.083
880.444
879.723
878.932
878.045
877.041
875.917
874.699
873.372
871.933
870.387
868.73
866.964
865.086
863.097
861
858.792
856.48
854.065
851.541
848.927
846.213
843.411
840.519
837.543
834.49
831.366
828.178
824.934
821.644
818.321
814.982
811.653
808.366
805.169
802.133
799.357
797.069
795.591
795.985
11463.2
3263.4
1613.58
918.075
575.313
407.601
322.873
273.419
241.379
218.638
201.821
189.048
178.969
170.786
164.066
158.577
154.209
150.951
148.968
148.31
148.879
150.767
154.446
160.106
168.455
180.181
196.075
218.163
249.49
294.245
358.871
436.36
504.668
557.094
605.29
650.61
690.771
724.57
753.905
781.307
806.435
817.943
818.336
804.051
789.522
770.758
750.839
730.16
709.442
690.668
673.814
659.964
648.811
640.113
633.559
628.982
626.308
625.101
624.878
625.484
627.31
629.981
633.292
637.098
641.259
645.676
650.278
654.983
659.759
664.56
669.357
674.128
678.86
683.545
688.18
692.769
697.314
701.825
706.309
710.776
715.232
719.685
724.139
728.599
733.066
737.542
742.023
746.509
750.994
755.474
759.94
764.388
768.81
773.198
777.545
781.843
786.083
790.258
794.359
798.383
802.327
806.184
809.944
813.598
817.146
820.582
823.901
827.096
830.167
833.113
835.93
838.617
841.169
843.583
845.858
847.99
849.978
851.821
853.521
855.078
856.495
857.776
858.923
859.942
860.835
861.608
862.263
862.807
863.241
863.575
863.808
863.942
863.969
863.854
863.628
863.33
862.927
862.43
861.845
861.172
860.405
859.545
858.596
857.565
856.441
855.214
853.878
852.442
850.898
849.246
847.484
845.61
843.622
841.519
839.298
836.962
834.509
831.944
829.267
826.478
823.585
820.587
817.489
814.293
811.007
807.634
804.183
800.661
797.078
793.442
789.77
786.076
782.385
778.727
775.141
771.687
768.44
765.569
763.22
761.982
11463.2
3355.87
1411.01
734.077
467.948
348.058
284.954
247.767
223.779
207.321
194.876
184.567
175.887
168.594
162.523
157.611
153.9
151.533
150.464
150.72
152.364
155.806
161.701
170.324
183.634
203.388
230.976
271.25
329.122
395.484
457.455
508.573
554.083
595.785
632.617
663.313
689.328
713.179
730.867
737.975
738.152
728.094
717.85
703.814
689.709
674.254
658.455
642.838
628.354
615.829
605.389
597.103
590.788
586.224
583.242
581.799
581.377
581.664
583.197
585.642
588.861
592.717
597.08
601.84
606.899
612.177
617.608
623.136
628.718
634.32
639.916
645.486
651.022
656.516
661.969
667.385
672.77
678.134
683.485
688.834
694.191
699.561
704.948
710.352
715.773
721.21
726.657
732.108
737.553
742.994
748.409
753.788
759.123
764.402
769.614
774.749
779.797
784.749
789.598
794.338
798.97
803.478
807.851
812.085
816.175
820.117
823.908
827.545
831.025
834.344
837.497
840.483
843.297
845.937
848.4
850.683
852.785
854.707
856.45
858.017
859.411
860.639
861.705
862.616
863.379
864
864.488
864.848
865.087
865.217
865.233
865.126
864.891
864.552
864.107
863.576
862.955
862.24
861.435
860.543
859.561
858.489
857.327
856.077
854.734
853.292
851.747
850.097
848.339
846.469
844.486
842.387
840.168
837.827
835.362
832.773
830.061
827.227
824.274
821.2
818.012
814.71
811.298
807.781
804.163
800.451
796.654
792.779
788.836
784.836
780.793
776.725
772.653
768.604
764.614
760.732
757.014
753.587
750.453
747.832
11463.2
3173.01
1172.46
606.012
406.883
318.003
269.544
240.048
220.256
205.75
194.647
185.836
178.611
172.602
167.715
164.004
161.644
160.796
161.659
164.495
169.328
177.406
189.826
207.301
233.332
269.502
315.819
367.564
416.436
461.903
502.923
540.232
573.877
603.353
629.499
651.921
666.724
672.428
672.867
666.229
658.809
648.547
638.339
627.103
615.708
603.802
592.065
581.102
571.565
563.727
557.483
552.784
549.516
547.704
547.021
546.999
547.924
549.957
552.864
556.528
560.84
565.698
571.004
576.671
582.622
588.788
595.109
601.534
608.024
614.543
621.068
627.579
634.067
640.529
646.96
653.366
659.753
666.129
672.503
678.886
685.296
691.734
698.199
704.693
711.212
717.75
724.3
730.85
737.382
743.867
750.319
756.727
763.076
769.353
775.544
781.634
787.61
793.462
799.176
804.743
810.146
815.382
820.443
825.325
830.022
834.532
838.848
842.969
846.889
850.604
854.111
857.407
860.487
863.35
865.992
868.411
870.608
872.582
874.339
875.88
877.214
878.346
879.287
880.044
880.632
881.051
881.326
881.455
881.451
881.332
881.079
880.703
880.207
879.602
878.898
878.1
877.213
876.237
875.175
874.028
872.795
871.473
870.064
868.565
866.975
865.286
863.496
861.599
859.59
857.465
855.222
852.855
850.361
847.735
844.977
842.084
839.059
835.901
832.611
829.191
825.645
821.973
818.18
814.271
810.251
806.128
801.909
797.604
793.223
788.78
784.288
779.765
775.233
770.716
766.245
761.861
757.607
753.581
749.766
746.069
11463.2
2796.64
964.26
522.537
369.211
298.984
261.236
237.422
221.334
209.947
201.292
194.396
188.841
184.531
181.619
180.462
181.212
184.619
190.732
199.322
210.834
227.011
248.772
277.056
310.879
348.176
386.468
423.499
458.06
490.485
520.205
546.797
571.193
593.031
608.514
615.12
616.421
613.308
608.231
601.127
593.786
585.783
577.771
569.317
560.714
552.09
543.987
536.765
530.732
525.953
522.414
520.113
519.033
518.774
519.267
520.789
523.235
526.526
530.576
535.296
540.604
546.418
552.66
559.259
566.148
573.269
580.563
587.983
595.488
603.045
610.629
618.218
625.8
633.383
640.948
648.5
656.044
663.588
671.134
678.68
686.198
693.747
701.343
708.985
716.667
724.383
732.125
739.879
747.635
755.388
763.093
770.726
778.268
785.7
793.005
800.166
807.167
813.995
820.636
827.079
833.316
839.338
845.141
850.717
856.061
861.168
866.033
870.652
875.021
879.134
882.988
886.58
889.905
892.963
895.75
898.265
900.508
902.482
904.191
905.641
906.843
907.805
908.541
909.061
909.392
909.518
909.494
909.326
908.996
908.531
907.937
907.22
906.387
905.448
904.412
903.288
902.077
900.785
899.412
897.959
896.425
894.807
893.105
891.317
889.439
887.466
885.391
883.209
880.912
878.494
875.951
873.277
870.467
867.516
864.422
861.184
857.802
854.276
850.606
846.795
842.844
838.757
834.537
830.189
825.719
821.135
816.445
811.66
806.791
801.853
796.861
791.833
786.79
781.755
776.755
771.825
766.997
762.352
757.861
753.149
11463.2
2378.35
843.751
486.853
356.698
295.319
261.698
241.959
229.24
220.417
213.971
209.224
206.008
204.604
204.865
207.72
213.51
222.134
232.86
246.021
263.125
284.249
308.851
336.006
364.518
393.245
421.33
448.311
473.468
496.552
518.216
538.337
554.045
562.433
565.358
565.631
563.171
558.984
554.117
548.8
543.435
537.795
531.987
525.92
519.807
513.886
508.51
503.941
500.349
497.772
496.322
495.809
495.938
497.086
499.127
502.026
505.744
510.216
515.376
521.156
527.489
534.308
541.548
549.147
557.051
565.221
573.585
582.095
590.719
599.426
608.189
616.979
625.764
634.481
643.188
651.904
660.639
669.397
678.182
687.006
695.897
704.846
713.856
722.909
731.997
741.114
750.248
759.381
768.49
777.544
786.524
795.407
804.167
812.783
821.231
829.492
837.547
845.381
852.982
860.337
867.438
874.274
880.838
887.122
893.119
898.824
904.232
909.337
914.134
918.619
922.787
926.633
930.156
933.354
936.224
938.766
940.981
942.874
944.449
945.716
946.684
947.371
947.79
947.95
947.918
947.66
947.211
946.589
945.807
944.884
943.829
942.656
941.371
939.989
938.516
936.963
935.335
933.635
931.865
930.026
928.113
926.127
924.063
921.92
919.693
917.376
914.961
912.439
909.8
907.037
904.143
901.11
897.933
894.607
891.129
887.499
883.713
879.773
875.679
871.431
867.032
862.485
857.793
852.961
847.996
842.906
837.7
832.388
826.985
821.507
815.969
810.391
804.793
799.195
793.624
788.109
782.675
777.389
772.222
766.578
11463.2
2014.76
749.063
454.885
346.458
294.916
267.511
251.501
241.554
235.148
231.042
228.97
228.494
229.938
233.768
240.209
249.211
260.332
273.43
288.906
306.858
326.741
347.909
369.749
391.735
413.358
433.938
453.34
471.911
489.655
504.287
514.065
519.144
521.25
521.55
520.309
517.935
515.008
511.853
508.502
504.985
501.207
497.223
493.103
489.058
485.328
482.167
479.75
478.284
477.731
477.778
478.709
480.555
483.257
486.795
491.155
496.274
502.064
508.476
515.457
522.951
530.902
539.253
547.946
556.919
566.085
575.408
584.902
594.548
604.325
614.209
624.181
634.23
644.371
654.56
664.785
675.058
685.371
695.713
706.086
716.492
726.914
737.34
747.787
758.257
768.748
779.249
789.74
800.196
810.583
820.874
831.037
841.043
850.861
860.463
869.826
878.929
887.757
896.298
904.542
912.477
920.094
927.382
934.332
940.936
947.189
953.085
958.617
963.781
968.569
972.977
977
980.636
983.884
986.742
989.212
991.295
992.997
994.326
995.29
995.901
996.177
996.158
995.841
995.264
994.449
993.418
992.196
990.802
989.26
987.587
985.799
983.908
981.93
979.874
977.751
975.569
973.333
971.046
968.705
966.307
963.846
961.324
958.734
956.072
953.328
950.492
947.554
944.502
941.325
938.014
934.558
930.953
927.195
923.28
919.205
914.967
910.566
906
901.27
896.378
891.326
886.119
880.761
875.259
869.619
863.853
857.973
851.995
845.935
839.811
833.643
827.45
821.252
815.072
808.938
802.868
796.919
791.083
784.562
11463.2
1927.76
739.169
453.64
349.241
302.061
277.777
264.278
256.492
252.257
250.503
250.347
252.199
256.061
262.051
270.09
279.944
291.381
304.434
319.023
334.757
351.207
367.976
384.687
400.988
416.849
432.398
447.488
460.454
469.896
476.44
480.798
483.028
483.901
484.042
483.483
482.446
481.142
479.631
477.903
475.962
473.823
471.579
469.366
467.38
465.83
465.016
464.82
465.446
466.923
469.143
472.162
475.967
480.532
485.809
491.696
498.089
505.114
512.75
520.944
529.636
538.765
548.272
558.104
568.214
578.578
589.159
599.916
610.831
621.897
633.106
644.453
655.956
667.611
679.367
691.181
703.009
714.846
726.694
738.549
750.4
762.237
774.055
785.864
797.673
809.486
821.297
833.091
844.835
856.493
868.027
879.398
890.568
901.501
912.161
922.517
932.545
942.24
951.591
960.589
969.222
977.481
985.354
992.831
999.904
1006.57
1012.81
1018.64
1024.03
1028.99
1033.5
1037.56
1041.17
1044.33
1047.04
1049.29
1051.1
1052.47
1053.41
1053.93
1054.04
1053.77
1053.14
1052.16
1050.89
1049.34
1047.54
1045.53
1043.34
1040.99
1038.5
1035.91
1033.22
1030.45
1027.63
1024.75
1021.84
1018.9
1015.93
1012.94
1009.91
1006.84
1003.73
1000.57
997.355
994.073
990.712
987.258
983.699
980.021
976.211
972.257
968.153
963.896
959.481
954.904
950.159
945.244
940.157
934.896
929.464
923.863
918.097
912.17
906.089
899.859
893.493
887.006
880.416
873.739
866.995
860.202
853.379
846.547
839.726
832.944
826.212
819.583
813.083
805.742
11463.2
1848.85
715.381
450.99
355.301
311.937
290.253
278.694
272.563
269.794
269.077
270.228
273.351
278.32
284.988
293.1
302.435
312.836
324.172
336.245
348.786
361.513
374.164
386.707
399.324
411.662
422.501
431.14
437.995
443.517
447.646
450.648
452.74
454.26
455.419
456.265
456.847
457.239
457.482
457.638
457.834
458.075
458.37
458.844
459.639
460.879
462.636
464.863
467.357
470.604
474.674
479.594
485.356
491.929
499.279
507.374
516.177
525.595
535.566
546
556.813
567.922
579.256
590.753
602.369
614.079
625.868
637.719
649.639
661.665
673.836
686.148
698.599
711.25
724.137
737.184
750.318
763.494
776.682
789.849
802.968
816.02
829.002
841.933
854.829
867.71
880.583
893.433
906.226
918.909
931.433
943.75
955.815
967.584
979.018
990.073
1000.71
1010.96
1020.8
1030.24
1039.26
1047.85
1056
1063.71
1070.96
1077.74
1084.07
1089.92
1095.29
1100.17
1104.55
1108.43
1111.79
1114.65
1117
1118.83
1120.16
1121
1121.37
1121.27
1120.76
1119.82
1118.44
1116.68
1114.56
1112.12
1109.4
1106.42
1103.23
1099.87
1096.35
1092.72
1089
1085.21
1081.37
1077.5
1073.61
1069.72
1065.83
1061.95
1058.09
1054.24
1050.38
1046.5
1042.59
1038.63
1034.61
1030.51
1026.33
1022.04
1017.63
1013.09
1008.4
1003.57
998.59
993.446
988.132
982.645
976.98
971.137
965.115
958.917
952.547
946.01
939.308
932.449
925.447
918.321
911.088
903.765
896.37
888.923
881.444
873.947
866.459
859.005
851.603
844.291
837.144
829.035
11463.2
1831.95
715
457.094
365.252
324.007
303.528
292.867
287.424
285.08
284.592
286.146
289.514
294.483
300.751
308.003
316.036
324.721
333.935
343.528
353.33
363.183
372.955
382.5
391.265
399.01
405.896
412.092
417.532
422.406
426.827
430.957
434.771
438.355
441.752
444.971
448.027
450.945
453.743
456.415
458.873
461.155
463.64
466.482
469.809
473.725
478.306
483.621
489.841
496.952
505.001
514.001
523.894
534.613
546.087
558.248
571.019
584.303
597.987
611.861
625.774
639.607
653.263
666.666
679.77
692.556
705.024
717.181
729.086
740.808
752.38
764.025
775.794
787.961
800.813
814.154
827.756
841.504
855.306
869.087
882.781
896.349
909.799
923.197
936.552
949.903
963.265
976.624
989.919
1003.08
1016.04
1028.73
1041.09
1053.1
1064.71
1075.91
1086.68
1097
1106.87
1116.25
1125.16
1133.57
1141.49
1148.91
1155.83
1162.26
1168.19
1173.62
1178.54
1182.95
1186.83
1190.19
1193
1195.27
1196.99
1198.17
1198.81
1198.89
1198.53
1197.65
1196.25
1194.4
1192.07
1189.31
1186.13
1182.59
1178.72
1174.57
1170.17
1165.57
1160.8
1155.92
1150.94
1145.9
1140.83
1135.74
1130.65
1125.58
1120.54
1115.56
1110.63
1105.76
1100.91
1096.07
1091.23
1086.38
1081.49
1076.56
1071.57
1066.5
1061.34
1056.09
1050.73
1045.24
1039.61
1033.83
1027.87
1021.75
1015.44
1008.96
1002.29
995.443
988.421
981.23
973.869
966.344
958.678
950.886
942.986
934.992
926.923
918.798
910.639
902.466
894.303
886.176
878.103
870.112
862.335
853.512
11463.7
1810.39
714.797
465.064
375.139
334.951
315.422
305.059
299.465
296.973
296.386
297.788
300.826
305.215
310.628
316.783
323.543
330.835
338.595
346.778
355.151
363.458
371.499
379.278
386.812
394.097
401.189
408.108
414.778
421.181
427.218
432.923
438.536
444.113
449.679
455.25
460.849
466.516
472.308
478.335
484.798
491.686
499.01
506.882
515.4
524.654
534.725
545.693
557.653
570.6
584.593
599.725
615.74
632.436
649.656
667.236
684.988
702.682
720.118
737.176
753.723
769.64
784.836
799.268
812.926
825.857
838.13
849.812
861.048
871.995
882.523
893.022
903.758
914.847
926.395
938.33
950.579
963.05
975.65
988.277
1000.84
1013.3
1025.7
1038.34
1051.1
1064
1077.04
1090.14
1103.2
1116.09
1128.73
1141.02
1152.91
1164.35
1175.32
1185.82
1195.85
1205.36
1214.33
1222.75
1230.61
1237.93
1244.72
1250.97
1256.71
1261.95
1266.7
1270.98
1274.76
1278.03
1280.8
1283.05
1284.78
1285.96
1286.58
1286.65
1286.24
1285.25
1283.71
1281.62
1278.99
1275.84
1272.19
1268.08
1263.54
1258.62
1253.36
1247.81
1242.02
1236.03
1229.88
1223.62
1217.29
1210.91
1204.52
1198.13
1191.77
1185.45
1179.19
1172.99
1166.87
1160.81
1154.81
1148.85
1142.92
1137.01
1131.11
1125.19
1119.25
1113.26
1107.2
1101.1
1094.91
1088.62
1082.2
1075.64
1068.92
1062.03
1054.98
1047.74
1040.34
1032.75
1024.99
1017.06
1008.98
1000.76
992.391
983.901
975.3
966.606
957.838
949.015
940.161
931.298
922.45
913.644
904.9
896.236
887.84
878.357
11462.8
1795.36
716.565
471.532
382.708
343.219
324.217
313.897
308.227
305.685
305.065
306.409
309.313
313.517
318.791
324.906
331.666
338.915
346.576
354.529
362.762
371.187
379.743
388.424
397.214
406.168
415.367
424.839
434.455
444.301
454.487
465.089
476.069
487.428
499.151
511.236
523.679
536.487
549.647
563.153
576.97
591.155
605.688
620.615
636.024
652.04
668.744
686.149
704.307
723.254
743.167
763.602
784.493
805.739
827.196
848.647
869.867
890.583
910.559
929.581
947.488
964.121
979.416
993.353
1005.94
1017.31
1027.63
1036.96
1045.83
1054.46
1063.04
1071.24
1079.63
1087.96
1096.24
1104.79
1113.82
1123.26
1133.1
1143.26
1153.62
1164.1
1174.64
1185.29
1196.1
1207.39
1219.06
1230.84
1242.53
1253.98
1265.1
1275.77
1285.91
1295.47
1304.42
1312.76
1320.49
1327.64
1334.21
1340.22
1345.67
1350.61
1355.04
1359
1362.5
1365.57
1368.24
1370.53
1372.38
1373.76
1374.71
1375.21
1375.25
1374.78
1373.76
1372.26
1370.28
1367.77
1364.72
1361.13
1357.04
1352.44
1347.39
1341.9
1336.01
1329.77
1323.22
1316.41
1309.39
1302.19
1294.86
1287.44
1279.98
1272.49
1265.01
1257.56
1250.15
1242.8
1235.52
1228.32
1221.21
1214.18
1207.22
1200.33
1193.48
1186.67
1179.88
1173.09
1166.3
1159.46
1152.58
1145.64
1138.62
1131.51
1124.28
1116.92
1109.41
1101.75
1093.93
1085.94
1077.78
1069.45
1060.95
1052.29
1043.47
1034.53
1025.45
1016.25
1006.94
997.541
988.073
978.557
969.017
959.477
949.963
940.505
931.121
921.829
912.853
902.806
11461.8
1784.57
719.576
473.95
387.027
349.189
331.193
321.653
316.885
315.313
315.667
318.133
322.221
327.7
334.281
342.056
351.119
360.541
370.327
380.83
392.208
404.23
416.779
430.151
444.388
459.575
475.773
492.982
511.331
530.95
551.86
573.981
597.132
621.15
645.876
671.169
696.914
723.011
749.16
775.045
800.405
825.079
848.975
872.115
894.66
917.033
939.559
961.894
984.108
1006.19
1027.86
1049.32
1070.7
1092.06
1113.27
1134.14
1154.47
1174.06
1192.56
1209.78
1225.48
1239.38
1251.36
1261.47
1269.45
1275.68
1280.06
1282.05
1283.71
1285.22
1287.61
1288.87
1291.08
1292.76
1294.66
1297.3
1300.82
1304.95
1309.96
1315.92
1322.67
1330.06
1337.87
1345.75
1354.11
1362.98
1371.92
1380.83
1389.52
1397.89
1405.85
1413.27
1419.99
1426.05
1431.42
1436.11
1440.19
1443.76
1446.84
1449.43
1451.58
1453.32
1454.68
1455.7
1456.4
1456.8
1456.95
1456.89
1456.45
1455.58
1454.41
1452.89
1450.97
1448.65
1445.89
1442.69
1439.06
1434.96
1430.39
1425.35
1419.87
1413.97
1407.67
1401