/*--------------------------------*- C++ -*----------------------------------*\
  =========                 |
  \\      /  F ield         | OpenFOAM: The Open Source CFD Toolbox
   \\    /   O peration     | Website:  https://openfoam.org
    \\  /    A nd           | Version:  13
     \\/     M anipulation  |
\*---------------------------------------------------------------------------*/
FoamFile
{
    format      ascii;
    class       volScalarField;
    location    "800";
    object      p;
}
// * * * * * * * * * * * * * * * * * * * * * * * * * * * * * * * * * * * * * //

dimensions      [0 2 -2 0 0 0 0];

internalField   nonuniform List<scalar> 
12225
(
-4.27699
-5.14611
-5.55957
-5.71007
-5.86133
-6.02779
-6.1729
-6.26666
-6.3313
-6.41399
-6.5053
-6.59361
-6.67975
-6.75954
-6.83118
-6.90065
-6.96907
-7.0511
-4.57218
-5.1778
-5.53205
-5.67731
-5.82863
-5.99593
-6.1359
-6.23335
-6.31206
-6.39166
-6.47661
-6.56446
-6.64781
-6.72698
-6.79962
-6.86489
-6.92745
-6.96898
-4.77704
-5.17016
-5.51832
-5.68907
-5.84259
-6.00301
-6.13681
-6.23721
-6.32137
-6.39978
-6.4815
-6.56453
-6.64185
-6.71429
-6.78047
-6.83965
-6.89242
-6.92715
-4.91546
-5.22661
-5.51623
-5.69604
-5.84125
-5.98889
-6.11862
-6.22109
-6.30732
-6.38756
-6.46843
-6.54827
-6.62294
-6.69297
-6.7567
-6.81292
-6.86183
-6.89756
-5.03547
-5.25749
-5.52051
-5.69789
-5.83681
-5.97667
-6.10476
-6.2094
-6.29799
-6.37978
-6.45957
-6.53689
-6.60961
-6.67713
-6.73813
-6.79179
-6.83844
-6.87517
-5.1484
-5.34471
-5.53692
-5.70702
-5.84235
-5.97538
-6.09926
-6.20295
-6.29134
-6.37245
-6.45032
-6.52512
-6.5954
-6.66012
-6.71867
-6.77067
-6.81614
-6.8535
-5.2415
-5.37162
-5.5538
-5.72304
-5.85425
-5.97959
-6.09737
-6.19853
-6.286
-6.36624
-6.44258
-6.51527
-6.58324
-6.64565
-6.70232
-6.75294
-6.79729
-6.8346
-5.32699
-5.40556
-5.58601
-5.74495
-5.87073
-5.98843
-6.09974
-6.19774
-6.28373
-6.36261
-6.43709
-6.50738
-6.57279
-6.63287
-6.68748
-6.73631
-6.77924
-6.81606
-5.40627
-5.46798
-5.62009
-5.76633
-5.88638
-5.99729
-6.10259
-6.19727
-6.28138
-6.3586
-6.43107
-6.49899
-6.56199
-6.61991
-6.67254
-6.71969
-6.76141
-6.7977
-5.47926
-5.5304
-5.65636
-5.7883
-5.90165
-6.00609
-6.10561
-6.19663
-6.27846
-6.35367
-6.42397
-6.4896
-6.55038
-6.60624
-6.65699
-6.70258
-6.74315
-6.77882
-5.5459
-5.58873
-5.69318
-5.81056
-5.91629
-6.01441
-6.10827
-6.19535
-6.2746
-6.3476
-6.4157
-6.47916
-6.53787
-6.59178
-6.64079
-6.68493
-6.72445
-6.75944
-5.60116
-5.63806
-5.72626
-5.83073
-5.929
-6.02137
-6.11013
-6.19346
-6.27018
-6.34113
-6.40727
-6.46882
-6.52572
-6.57793
-6.62548
-6.66844
-6.70706
-6.74146
-5.65113
-5.68319
-5.75784
-5.85041
-5.94122
-6.0279
-6.1117
-6.19129
-6.26539
-6.33424
-6.39842
-6.45813
-6.51331
-6.56397
-6.61017
-6.65205
-6.68987
-6.72371
-5.70247
-5.72966
-5.79184
-5.8724
-5.95493
-6.03529
-6.11364
-6.18894
-6.2599
-6.32623
-6.38816
-6.4458
-6.49912
-6.54812
-6.59293
-6.63367
-6.67061
-6.70384
-5.75306
-5.77565
-5.82696
-5.89609
-5.96996
-6.04359
-6.1162
-6.18678
-6.25409
-6.31749
-6.37686
-6.43223
-6.48354
-6.5308
-6.57413
-6.61367
-6.64968
-6.68224
-5.79979
-5.8184
-5.86081
-5.91982
-5.98529
-6.05221
-6.11907
-6.1848
-6.24816
-6.30832
-6.36493
-6.41788
-6.46708
-6.51254
-6.55435
-6.59267
-6.62767
-6.65954
-5.83836
-5.85389
-5.8896
-5.9405
-5.9987
-6.05956
-6.12119
-6.18237
-6.24189
-6.29883
-6.3527
-6.40325
-6.45039
-6.49409
-6.53442
-6.57151
-6.60554
-6.63667
-5.86251
-5.87609
-5.90759
-5.95323
-6.00641
-6.06287
-6.12059
-6.17828
-6.23475
-6.28906
-6.34063
-6.38917
-6.43455
-6.47672
-6.51574
-6.5517
-6.5848
-6.61518
-5.86229
-5.87544
-5.90601
-5.95044
-6.0023
-6.05741
-6.11382
-6.17024
-6.22549
-6.27862
-6.32906
-6.37653
-6.42088
-6.4621
-6.50023
-6.53539
-6.56775
-6.59752
-5.8291
-5.8442
-5.87872
-5.92776
-5.98356
-6.04177
-6.10073
-6.15933
-6.21629
-6.27068
-6.32195
-6.36993
-6.41451
-6.45571
-6.49365
-6.52846
-6.56038
-6.58965
-5.78092
-5.79938
-5.84093
-5.89792
-5.96026
-6.02354
-6.08688
-6.14928
-6.20936
-6.26612
-6.31922
-6.36852
-6.414
-6.45573
-6.49383
-6.52858
-6.5602
-6.58908
-5.71875
-5.74284
-5.79556
-5.8639
-5.93458
-6.00422
-6.07323
-6.1406
-6.20463
-6.26444
-6.31988
-6.37097
-6.4177
-6.46019
-6.49866
-6.53339
-6.56473
-6.59314
-5.64483
-5.67772
-5.74672
-5.82917
-5.90883
-5.98544
-6.06102
-6.13402
-6.20234
-6.2654
-6.3234
-6.37644
-6.42453
-6.46784
-6.50668
-6.54138
-6.57233
-6.60005
-5.5602
-5.60637
-5.69754
-5.79533
-5.88331
-5.96717
-6.05019
-6.12924
-6.20194
-6.26832
-6.32897
-6.38406
-6.4336
-6.47775
-6.51692
-6.55163
-6.58227
-6.60948
-5.46529
-5.53254
-5.65143
-5.76343
-5.85743
-5.94841
-6.03948
-6.12501
-6.2023
-6.27229
-6.33579
-6.39302
-6.44405
-6.48904
-6.52835
-6.56265
-6.59258
-6.61884
-5.35958
-5.45887
-5.61119
-5.73628
-5.83484
-5.93268
-6.03132
-6.12266
-6.20426
-6.27787
-6.34452
-6.4043
-6.45724
-6.50352
-6.5435
-6.5777
-6.60686
-6.63227
-5.24076
-5.38485
-5.57478
-5.70889
-5.81393
-5.92149
-6.02799
-6.12399
-6.20886
-6.2849
-6.35326
-6.41454
-6.46855
-6.51524
-6.5554
-6.58931
-6.61742
-6.64161
-5.10223
-5.34353
-5.55701
-5.6826
-5.79143
-5.91105
-6.02702
-6.12858
-6.21775
-6.29766
-6.36869
-6.43202
-6.48735
-6.53422
-6.57373
-6.60676
-6.63388
-6.65678
-4.91137
-5.32495
-5.57243
-5.67779
-5.77982
-5.90293
-6.02218
-6.12553
-6.21479
-6.2953
-6.36962
-6.43677
-6.49509
-6.54412
-6.58464
-6.61788
-6.64526
-6.66662
-4.64937
-5.24578
-5.55458
-5.66919
-5.7791
-5.91153
-6.03911
-6.15001
-6.2406
-6.31857
-6.3956
-6.46735
-6.52898
-6.58063
-6.62206
-6.65452
-6.68064
-6.69909
-7.48997
-7.49005
-7.49005
-7.48995
-7.48953
-7.48838
-7.48635
-7.48389
-7.48174
-7.48076
-7.48161
-7.48433
-7.48844
-7.49328
-7.49826
-7.50288
-7.50676
-7.50955
-7.51117
-7.51186
-7.51193
-7.51156
-7.51088
-7.5101
-7.50943
-7.50902
-7.50885
-7.50877
-7.50861
-7.50829
-7.50782
-7.50723
-7.50655
-7.50572
-7.50468
-7.5035
-7.5025
-7.50227
-7.50341
-7.50599
-7.5094
-7.51269
-7.5151
-7.51647
-7.51723
-7.51798
-7.5192
-7.52134
-7.52462
-7.5284
-7.53172
-7.53406
-7.53716
-7.54438
-7.55934
-7.58334
-7.61555
-7.65391
-7.69745
-7.74616
-7.80006
-7.85799
-7.91844
-7.97952
-8.03975
-8.09805
-8.15411
-8.20746
-8.25754
-8.30436
-8.34803
-8.38867
-8.42648
-8.46161
-8.49419
-8.52429
-8.55194
-8.57709
-8.59964
-8.61946
-8.63635
-8.65008
-8.66035
-8.66681
-8.66903
-8.66662
-8.65919
-8.64642
-8.62801
-8.60363
-8.57295
-8.53566
-8.4915
-8.4403
-8.38192
-8.3163
-8.2434
-8.16316
-8.07535
-7.97967
-7.87577
-7.76347
-7.64269
-7.51355
-7.37616
-7.23061
-7.077
-6.91543
-6.74613
-6.5693
-6.38523
-6.19421
-5.99665
-5.79292
-5.58354
-5.36902
-5.14998
-4.92692
-4.70037
-4.47076
-4.23862
-4.00452
-3.76915
-3.53305
-3.29677
-3.0607
-2.8252
-2.59059
-2.35709
-2.12492
-1.89418
-1.665
-1.4373
-1.21113
-0.986267
-0.762675
-0.540041
-0.318226
-0.0968576
0.124256
0.345436
0.566953
0.789069
1.01207
1.23622
1.46181
1.68905
1.91815
2.14925
2.38248
2.6179
2.85553
3.09534
3.33724
3.5811
3.82672
4.07391
4.32237
4.57183
4.82192
5.07231
5.3226
5.5724
5.8213
6.06889
6.31473
6.55842
6.79953
7.03765
7.27236
7.50328
7.73002
7.95223
8.16955
8.38171
8.58844
8.78963
8.98504
9.17766
9.35762
-7.49094
-7.49106
-7.49126
-7.49141
-7.49125
-7.49047
-7.48895
-7.48728
-7.48639
-7.48697
-7.48917
-7.49277
-7.49727
-7.50217
-7.507
-7.5114
-7.51512
-7.51798
-7.51984
-7.52055
-7.52008
-7.51864
-7.51658
-7.5143
-7.51221
-7.51056
-7.50945
-7.50873
-7.50818
-7.50761
-7.50705
-7.50655
-7.50612
-7.50563
-7.50499
-7.50423
-7.50382
-7.50443
-7.50645
-7.50964
-7.51321
-7.51623
-7.51812
-7.51871
-7.51828
-7.5174
-7.51672
-7.51675
-7.51799
-7.52107
-7.52629
-7.53277
-7.53968
-7.54951
-7.56523
-7.58694
-7.61479
-7.65026
-7.69463
-7.74698
-7.80485
-7.86578
-7.92772
-7.98916
-8.04914
-8.10705
-8.16187
-8.21283
-8.26035
-8.30463
-8.3459
-8.38441
-8.42037
-8.45398
-8.48535
-8.51455
-8.54156
-8.56632
-8.58869
-8.6085
-8.62554
-8.63954
-8.65021
-8.65719
-8.66007
-8.65844
-8.65189
-8.6401
-8.62275
-8.59951
-8.57005
-8.53407
-8.49129
-8.44151
-8.38455
-8.32023
-8.24839
-8.16885
-8.08145
-7.9861
-7.88276
-7.77138
-7.65191
-7.52425
-7.38835
-7.24427
-7.09208
-6.93196
-6.76402
-6.58853
-6.40569
-6.21584
-6.01931
-5.81653
-5.60794
-5.3941
-5.17556
-4.9529
-4.72661
-4.49715
-4.26505
-4.03092
-3.79541
-3.5591
-3.32253
-3.08611
-2.85024
-2.61522
-2.38132
-2.14873
-1.91762
-1.68803
-1.46
-1.23348
-1.00837
-0.784508
-0.561626
-0.339442
-0.117727
0.103661
0.324885
0.546212
0.768004
0.990616
1.21434
1.43946
1.66618
1.89473
2.12528
2.35794
2.59278
2.82985
3.06911
3.31048
3.55384
3.79901
4.04578
4.29387
4.543
4.79283
5.04301
5.29314
5.54285
5.7917
6.03929
6.2852
6.52901
6.77028
7.00863
7.24363
7.47489
7.70203
7.92473
8.14264
8.35556
8.56323
8.76565
8.96202
9.15748
9.33716
-7.49204
-7.49201
-7.49197
-7.49194
-7.49193
-7.49199
-7.49234
-7.49344
-7.49562
-7.49892
-7.50309
-7.50782
-7.51275
-7.51758
-7.52203
-7.52588
-7.52897
-7.53119
-7.5325
-7.53283
-7.53215
-7.53054
-7.52816
-7.52518
-7.52179
-7.51818
-7.51457
-7.51116
-7.50815
-7.50572
-7.50392
-7.50268
-7.50171
-7.5007
-7.49971
-7.49929
-7.50025
-7.50296
-7.50703
-7.51145
-7.5151
-7.5172
-7.51749
-7.51619
-7.51405
-7.51224
-7.51179
-7.51303
-7.51613
-7.52162
-7.53014
-7.54216
-7.5578
-7.57825
-7.60468
-7.63698
-7.67477
-7.71776
-7.76547
-7.81676
-7.87015
-7.92427
-7.97804
-8.03069
-8.08177
-8.13101
-8.17806
-8.22259
-8.26465
-8.30433
-8.34179
-8.37716
-8.41059
-8.44218
-8.47198
-8.5
-8.52617
-8.5504
-8.57249
-8.59225
-8.60941
-8.62369
-8.63476
-8.64228
-8.64582
-8.64499
-8.63934
-8.62855
-8.61226
-8.59014
-8.56189
-8.52717
-8.48574
-8.43736
-8.38184
-8.31898
-8.24861
-8.17051
-8.08456
-7.99066
-7.8888
-7.77896
-7.66107
-7.53507
-7.40087
-7.25852
-7.10804
-6.94958
-6.78327
-6.60933
-6.42796
-6.23951
-6.04426
-5.84264
-5.63508
-5.42212
-5.2043
-4.98221
-4.75632
-4.52716
-4.29523
-4.06119
-3.82567
-3.58929
-3.35255
-3.1159
-2.87976
-2.64444
-2.41024
-2.17735
-1.94596
-1.71613
-1.48793
-1.26127
-1.0361
-0.81225
-0.589522
-0.367625
-0.146322
0.0745811
0.29529
0.516056
0.737238
0.959162
1.18216
1.40649
1.6324
1.86009
2.08976
2.32154
2.55551
2.79172
3.03015
3.27073
3.51333
3.75778
4.00389
4.25138
4.49997
4.74932
4.99908
5.24886
5.49827
5.74688
5.99429
6.24006
6.48378
6.72503
6.96338
7.19843
7.4298
7.6571
7.88
8.09816
8.31135
8.5194
8.72264
8.91972
9.11828
9.29401
-7.49316
-7.4929
-7.49258
-7.49263
-7.4937
-7.49606
-7.49954
-7.50386
-7.50874
-7.5139
-7.51912
-7.52419
-7.52895
-7.53327
-7.53701
-7.54004
-7.54229
-7.54369
-7.54421
-7.54382
-7.54251
-7.54034
-7.53736
-7.53366
-7.52928
-7.52433
-7.51893
-7.51327
-7.50762
-7.50229
-7.49758
-7.49361
-7.49048
-7.4883
-7.48748
-7.48882
-7.49271
-7.49814
-7.50356
-7.50784
-7.51029
-7.51083
-7.51
-7.50872
-7.5082
-7.50943
-7.51289
-7.51887
-7.5279
-7.54068
-7.55747
-7.57817
-7.60279
-7.63144
-7.66413
-7.70056
-7.74029
-7.78267
-7.82709
-7.87296
-7.91968
-7.96661
-8.01318
-8.05889
-8.10339
-8.14644
-8.18785
-8.22749
-8.26533
-8.30144
-8.33589
-8.36878
-8.4002
-8.4302
-8.45881
-8.48599
-8.51167
-8.5357
-8.55788
-8.57795
-8.59562
-8.61057
-8.62245
-8.63087
-8.63544
-8.6357
-8.63125
-8.6217
-8.6067
-8.58589
-8.55895
-8.52557
-8.48549
-8.43847
-8.3843
-8.3228
-8.25378
-8.17706
-8.09252
-8.00006
-7.89965
-7.79124
-7.67479
-7.55022
-7.4175
-7.27662
-7.12762
-6.97059
-6.80568
-6.63305
-6.45294
-6.26563
-6.07144
-5.87074
-5.66398
-5.45167
-5.23436
-5.0126
-4.7869
-4.5578
-4.32585
-4.09171
-3.85603
-3.61942
-3.38239
-3.14543
-2.90893
-2.67326
-2.43872
-2.20552
-1.97387
-1.74384
-1.51551
-1.28879
-1.06365
-0.839895
-0.61735
-0.395772
-0.174923
0.0454061
0.265463
0.485545
0.705993
0.927126
1.14927
1.37271
1.59769
1.82444
2.05315
2.28397
2.517
2.7523
2.98984
3.22957
3.47137
3.71509
3.96051
4.20738
4.4554
4.70427
4.9536
5.20302
5.45213
5.70051
5.94773
6.19338
6.437
6.6782
6.91654
7.15163
7.38306
7.61049
7.83357
8.052
8.26556
8.47403
8.67788
8.87517
9.0748
9.2446
-7.49535
-7.49482
-7.49455
-7.49587
-7.49943
-7.5046
-7.51054
-7.51672
-7.52279
-7.52857
-7.53392
-7.53881
-7.54318
-7.54695
-7.55006
-7.55242
-7.55397
-7.55466
-7.55446
-7.55335
-7.55131
-7.54838
-7.54459
-7.53998
-7.53458
-7.52848
-7.52173
-7.51445
-7.50684
-7.49918
-7.49187
-7.48543
-7.48046
-7.47773
-7.47809
-7.48164
-7.48698
-7.49229
-7.49669
-7.49982
-7.50162
-7.50264
-7.50379
-7.50597
-7.50993
-7.51628
-7.52563
-7.53858
-7.55553
-7.57643
-7.60072
-7.62766
-7.65696
-7.68847
-7.72212
-7.75787
-7.79558
-7.83495
-7.8756
-7.91709
-7.95897
-8.00078
-8.04213
-8.08267
-8.12217
-8.16044
-8.19737
-8.23293
-8.26714
-8.30006
-8.33178
-8.36237
-8.39192
-8.42047
-8.44802
-8.47451
-8.49983
-8.52383
-8.54626
-8.56685
-8.58526
-8.60112
-8.61404
-8.62362
-8.62942
-8.63098
-8.62787
-8.61969
-8.60605
-8.58662
-8.561
-8.52893
-8.49009
-8.44431
-8.39133
-8.33101
-8.26313
-8.1876
-8.10424
-8.013
-7.91378
-7.80654
-7.69123
-7.56777
-7.43615
-7.29634
-7.14841
-6.99239
-6.82844
-6.65668
-6.47739
-6.29075
-6.09716
-5.89692
-5.69053
-5.47843
-5.26123
-5.0394
-4.81352
-4.58412
-4.35184
-4.11733
-3.88126
-3.64422
-3.40676
-3.16936
-2.93244
-2.6964
-2.46152
-2.22808
-1.99622
-1.76612
-1.53776
-1.31118
-1.0862
-0.86273
-0.640528
-0.419423
-0.199175
0.0204475
0.239711
0.458976
0.678543
0.898764
1.11995
1.34242
1.56641
1.79218
2.01993
2.24981
2.48195
2.71639
2.95314
3.19212
3.43324
3.67633
3.9212
4.16758
4.4152
4.66371
4.91277
5.16198
5.41094
5.65922
5.9064
6.15203
6.39571
6.63698
6.87546
7.11071
7.34237
7.57004
7.79343
8.01219
8.22612
8.4349
8.63899
8.83588
9.03536
9.19864
-7.49908
-7.49835
-7.49887
-7.50256
-7.50854
-7.51528
-7.52208
-7.52863
-7.53476
-7.54041
-7.54557
-7.5502
-7.55424
-7.55763
-7.56029
-7.56216
-7.56319
-7.56334
-7.56259
-7.56091
-7.5583
-7.55478
-7.55036
-7.54504
-7.53883
-7.53177
-7.52397
-7.51558
-7.50679
-7.4979
-7.48944
-7.4822
-7.47712
-7.47509
-7.47618
-7.47925
-7.48276
-7.48605
-7.4891
-7.49212
-7.49539
-7.49932
-7.50442
-7.51136
-7.52092
-7.53369
-7.54996
-7.56963
-7.59236
-7.61771
-7.6453
-7.67477
-7.70584
-7.73837
-7.77224
-7.80733
-7.8435
-7.88051
-7.91811
-7.95597
-7.99378
-8.03125
-8.06812
-8.10418
-8.13931
-8.17339
-8.20641
-8.23837
-8.26933
-8.2994
-8.32865
-8.35719
-8.38509
-8.41239
-8.43909
-8.46511
-8.49032
-8.51454
-8.5375
-8.55887
-8.57829
-8.59535
-8.60961
-8.62061
-8.62789
-8.63096
-8.62937
-8.62267
-8.61051
-8.59244
-8.56817
-8.53734
-8.4997
-8.455
-8.40307
-8.3437
-8.27677
-8.20214
-8.1197
-8.02934
-7.931
-7.82461
-7.71009
-7.58742
-7.45653
-7.31742
-7.17012
-7.0147
-6.85124
-6.67992
-6.50093
-6.31453
-6.12101
-5.92076
-5.71422
-5.50189
-5.28429
-5.06195
-4.83545
-4.60537
-4.3724
-4.1372
-3.90046
-3.66277
-3.42469
-3.18671
-2.9493
-2.71284
-2.47764
-2.24399
-2.01204
-1.78196
-1.55376
-1.32744
-1.10287
-0.879877
-0.658291
-0.437899
-0.218485
0.000221525
0.218524
0.436774
0.655295
0.874437
1.09454
1.31591
1.53884
1.76357
1.99033
2.21928
2.45055
2.68418
2.9202
3.15852
3.39906
3.64164
3.88609
4.13212
4.37947
4.62778
4.87671
5.12585
5.3748
5.62312
5.87039
6.11617
6.36002
6.60152
6.84024
7.07577
7.30773
7.53572
7.75943
7.97851
8.19273
8.40169
8.60579
8.80203
9.0011
9.15796
-7.50341
-7.5031
-7.50527
-7.51093
-7.51784
-7.52469
-7.53126
-7.53751
-7.54338
-7.54884
-7.55382
-7.55826
-7.56207
-7.56519
-7.56756
-7.56911
-7.56981
-7.56961
-7.56848
-7.56642
-7.56344
-7.55955
-7.5547
-7.54883
-7.54196
-7.53424
-7.52582
-7.5169
-7.50776
-7.49883
-7.49076
-7.48443
-7.48052
-7.4789
-7.47869
-7.47918
-7.48027
-7.48218
-7.48519
-7.48947
-7.49505
-7.50226
-7.51175
-7.52408
-7.53948
-7.55787
-7.57902
-7.6026
-7.62831
-7.65585
-7.68498
-7.71554
-7.74734
-7.7802
-7.81391
-7.84829
-7.88314
-7.91823
-7.95335
-7.98827
-8.0228
-8.05676
-8.08998
-8.12236
-8.15383
-8.18438
-8.21403
-8.24286
-8.27098
-8.29852
-8.32561
-8.35236
-8.37887
-8.40518
-8.43129
-8.45713
-8.48253
-8.50729
-8.5311
-8.5536
-8.57437
-8.59295
-8.60885
-8.62156
-8.63058
-8.63537
-8.63545
-8.63038
-8.61971
-8.60308
-8.58011
-8.55045
-8.51389
-8.47013
-8.41906
-8.36045
-8.29424
-8.22026
-8.13845
-8.04868
-7.95091
-7.84505
-7.73104
-7.60882
-7.47833
-7.33959
-7.19257
-7.03737
-6.87402
-6.70272
-6.52361
-6.337
-6.14312
-5.94241
-5.73527
-5.52224
-5.30379
-5.08052
-4.85297
-4.62186
-4.38783
-4.15166
-3.91396
-3.67539
-3.43649
-3.19782
-2.95982
-2.72289
-2.4874
-2.25356
-2.02163
-1.79167
-1.56379
-1.33789
-1.1139
-0.891621
-0.670889
-0.451478
-0.233128
-0.0155654
0.201567
0.418588
0.635874
0.853762
1.07263
1.29279
1.51455
1.73818
1.96391
2.19192
2.42233
2.65521
2.89054
3.12829
3.36833
3.61052
3.85465
4.10046
4.34765
4.59591
4.84482
5.09403
5.3431
5.5916
5.8391
6.08515
6.32929
6.57112
6.81017
7.04606
7.27838
7.50674
7.73078
7.95017
8.16462
8.37367
8.57768
8.77319
8.97192
9.12274
-7.50645
-7.50711
-7.51114
-7.51752
-7.52414
-7.53051
-7.53669
-7.54267
-7.54836
-7.55368
-7.55853
-7.56285
-7.56653
-7.56952
-7.57175
-7.57315
-7.57367
-7.57329
-7.57198
-7.56974
-7.56657
-7.56243
-7.55722
-7.55096
-7.54385
-7.53605
-7.52769
-7.51906
-7.51055
-7.50271
-7.49611
-7.49103
-7.48715
-7.48404
-7.48166
-7.48041
-7.48069
-7.48261
-7.48631
-7.49215
-7.50046
-7.51141
-7.52514
-7.54161
-7.56074
-7.5823
-7.60608
-7.63179
-7.65921
-7.6881
-7.71828
-7.74954
-7.7817
-7.81454
-7.84787
-7.88145
-7.91509
-7.94857
-7.98172
-8.01435
-8.04632
-8.0775
-8.10779
-8.13714
-8.16555
-8.19308
-8.21981
-8.2459
-8.27149
-8.29678
-8.32194
-8.34714
-8.3725
-8.39808
-8.42389
-8.44984
-8.47576
-8.50141
-8.52644
-8.55043
-8.57292
-8.59338
-8.61126
-8.62598
-8.63699
-8.64371
-8.64564
-8.64227
-8.6332
-8.61796
-8.59623
-8.56768
-8.53202
-8.48906
-8.43862
-8.38058
-8.31482
-8.24126
-8.1598
-8.07037
-7.97288
-7.86728
-7.75349
-7.63145
-7.5011
-7.36242
-7.2154
-7.06008
-6.89654
-6.7249
-6.54536
-6.35813
-6.16354
-5.96197
-5.75386
-5.53971
-5.32003
-5.09541
-4.86649
-4.63399
-4.39864
-4.16118
-3.92229
-3.68262
-3.44275
-3.20325
-2.96459
-2.72718
-2.49137
-2.25742
-2.02555
-1.79584
-1.56838
-1.34308
-1.11984
-0.898485
-0.678816
-0.460594
-0.243522
-0.0272826
0.188475
0.404098
0.619967
0.836454
1.05394
1.27277
1.49328
1.71573
1.94038
2.16742
2.39697
2.62911
2.86379
3.101
3.3406
3.58246
3.82634
4.07201
4.31914
4.56742
4.81644
5.06582
5.31513
5.56393
5.81177
6.0582
6.30275
6.54499
6.78448
7.0208
7.25354
7.48231
7.70672
7.92643
8.14112
8.35022
8.5541
8.7489
8.9474
9.09274
-7.50661
-7.50842
-7.5136
-7.51979
-7.52593
-7.53198
-7.53797
-7.54381
-7.54941
-7.55468
-7.55951
-7.56382
-7.56751
-7.57052
-7.57276
-7.57417
-7.57472
-7.57435
-7.57305
-7.57081
-7.56758
-7.56331
-7.55802
-7.55183
-7.54496
-7.5376
-7.52997
-7.52242
-7.51526
-7.50872
-7.50291
-7.49769
-7.49291
-7.48874
-7.48561
-7.48399
-7.4843
-7.48688
-7.49202
-7.49993
-7.51063
-7.52408
-7.54021
-7.55889
-7.57996
-7.60322
-7.62845
-7.65543
-7.68395
-7.71377
-7.74471
-7.7765
-7.80894
-7.84178
-7.87481
-7.90779
-7.94052
-7.9728
-8.00445
-8.03532
-8.06526
-8.09418
-8.12203
-8.14881
-8.17457
-8.19944
-8.22356
-8.24714
-8.27042
-8.29364
-8.31705
-8.34088
-8.36528
-8.39036
-8.41612
-8.44249
-8.46926
-8.49616
-8.52279
-8.54867
-8.57326
-8.59597
-8.61616
-8.63319
-8.64645
-8.65532
-8.65922
-8.65766
-8.65016
-8.63635
-8.61578
-8.58821
-8.55331
-8.51096
-8.46095
-8.40323
-8.33768
-8.26428
-8.18291
-8.09355
-7.99611
-7.89052
-7.77672
-7.65461
-7.52417
-7.3853
-7.23804
-7.08235
-6.91835
-6.7461
-6.56582
-6.37768
-6.18207
-5.97931
-5.76991
-5.55429
-5.33305
-5.10676
-4.87618
-4.64201
-4.4051
-4.16612
-3.92586
-3.68493
-3.44399
-3.20358
-2.96421
-2.72631
-2.49021
-2.25622
-2.02447
-1.79514
-1.5682
-1.34365
-1.12133
-0.901081
-0.682666
-0.465804
-0.250187
-0.0354336
0.178782
0.392856
0.607158
0.822114
1.03811
1.25552
1.47469
1.69591
1.91945
2.1455
2.37421
2.6056
2.83967
3.07635
3.31555
3.55711
3.80082
4.0464
4.29358
4.54197
4.79121
5.04087
5.29053
5.53974
5.78804
6.03494
6.28
6.52273
6.76273
6.99953
7.23275
7.46196
7.68678
7.90681
8.12172
8.33087
8.5346
8.72873
8.92708
9.06758
-7.50255
-7.50532
-7.51076
-7.51671
-7.52272
-7.52875
-7.53474
-7.54061
-7.54628
-7.55164
-7.5566
-7.56106
-7.56492
-7.56809
-7.57051
-7.57209
-7.5728
-7.57258
-7.57141
-7.56929
-7.56618
-7.5621
-7.55712
-7.5514
-7.54517
-7.53862
-7.53201
-7.52554
-7.5193
-7.51331
-7.50762
-7.50225
-7.49731
-7.49311
-7.49012
-7.48891
-7.48995
-7.49353
-7.49979
-7.50886
-7.52074
-7.53537
-7.55267
-7.57247
-7.5946
-7.61884
-7.645
-7.67284
-7.70218
-7.73275
-7.76433
-7.79665
-7.82947
-7.8625
-7.89551
-7.92824
-7.96047
-7.99198
-8.02259
-8.05211
-8.08044
-8.10749
-8.13325
-8.15777
-8.18114
-8.20354
-8.22521
-8.24641
-8.26746
-8.28869
-8.31043
-8.33297
-8.35655
-8.3813
-8.40724
-8.43429
-8.46222
-8.49071
-8.5193
-8.54744
-8.57452
-8.59985
-8.62271
-8.64238
-8.65814
-8.66934
-8.67536
-8.67567
-8.66983
-8.65732
-8.63788
-8.61112
-8.57684
-8.53484
-8.48504
-8.42737
-8.3618
-8.28829
-8.20681
-8.11729
-8.01968
-7.91391
-7.79989
-7.67755
-7.54679
-7.40757
-7.25984
-7.1036
-6.9389
-6.76582
-6.58454
-6.39528
-6.19836
-5.99417
-5.78315
-5.56581
-5.34272
-5.11455
-4.88207
-4.64607
-4.40738
-4.16676
-3.92498
-3.68272
-3.44063
-3.19929
-2.95921
-2.72083
-2.48451
-2.25051
-2.01901
-1.79014
-1.56388
-1.3402
-1.11895
-0.899955
-0.682941
-0.467595
-0.253551
-0.04043
0.172128
0.384512
0.597136
0.81044
1.02486
1.24077
1.45853
1.67844
1.90081
2.12583
2.35366
2.5843
2.81774
3.05391
3.29273
3.53402
3.7776
4.02318
4.27046
4.51906
4.7686
5.01864
5.26875
5.51846
5.76731
6.01478
6.26042
6.50372
6.74427
6.98162
7.21536
7.44506
7.67031
7.89068
8.10582
8.31501
8.51861
8.71212
8.91035
9.04671
-7.49301
-7.49629
-7.50176
-7.50791
-7.51427
-7.5206
-7.52683
-7.5329
-7.53877
-7.54437
-7.54959
-7.55432
-7.55846
-7.56191
-7.56458
-7.56641
-7.56736
-7.56739
-7.5665
-7.56469
-7.56197
-7.55839
-7.55404
-7.54909
-7.54371
-7.53804
-7.53221
-7.52635
-7.5205
-7.51474
-7.50914
-7.50386
-7.49915
-7.49538
-7.49298
-7.4924
-7.49402
-7.49814
-7.50495
-7.51456
-7.52702
-7.54225
-7.56017
-7.5806
-7.60338
-7.6283
-7.65517
-7.68377
-7.71388
-7.74524
-7.77759
-7.81063
-7.84407
-7.87761
-7.91097
-7.94385
-7.97601
-8.00716
-8.03711
-8.06566
-8.0927
-8.11816
-8.14206
-8.16448
-8.18558
-8.20559
-8.2248
-8.24358
-8.26233
-8.28148
-8.30148
-8.3227
-8.34547
-8.36999
-8.3963
-8.4243
-8.45373
-8.48418
-8.51514
-8.54597
-8.57595
-8.60428
-8.63015
-8.65271
-8.6712
-8.68486
-8.69308
-8.69532
-8.69102
-8.67983
-8.66133
-8.63523
-8.60134
-8.55949
-8.50966
-8.4518
-8.38597
-8.31216
-8.23035
-8.14051
-8.04256
-7.93645
-7.82206
-7.69932
-7.5681
-7.42837
-7.28
-7.12304
-6.95745
-6.78338
-6.6009
-6.41032
-6.2119
-6.00607
-5.79323
-5.57397
-5.34886
-5.11868
-4.88417
-4.64626
-4.40569
-4.16337
-3.92003
-3.67643
-3.43319
-3.19094
-2.95019
-2.71139
-2.47492
-2.24099
-2.00984
-1.7815
-1.55604
-1.33334
-1.11331
-0.895694
-0.680194
-0.466468
-0.254099
-0.0427236
0.168059
0.378628
0.58945
0.80099
1.01371
1.22802
1.44429
1.66286
1.88401
2.108
2.33495
2.56488
2.79771
3.03341
3.27187
3.51297
3.75646
4.00211
4.24957
4.49847
4.74838
4.9989
5.24953
5.49984
5.7493
5.99743
6.24369
6.48763
6.72878
6.96673
7.20102
7.43123
7.65692
7.87765
8.09301
8.30226
8.50573
8.69869
8.89681
9.0297
-7.47724
-7.48062
-7.48645
-7.49343
-7.50056
-7.50742
-7.514
-7.52037
-7.52657
-7.53255
-7.5382
-7.54336
-7.5479
-7.55169
-7.5547
-7.55688
-7.55819
-7.55861
-7.55816
-7.55685
-7.5547
-7.55178
-7.54819
-7.54402
-7.53938
-7.53439
-7.52911
-7.52363
-7.51803
-7.5124
-7.50692
-7.50184
-7.49743
-7.49405
-7.49205
-7.49185
-7.49381
-7.49823
-7.50533
-7.51524
-7.52798
-7.54352
-7.56176
-7.58257
-7.60581
-7.63131
-7.65888
-7.68829
-7.71932
-7.75167
-7.78505
-7.81913
-7.85358
-7.88804
-7.92219
-7.95567
-7.98816
-8.01935
-8.04898
-8.07686
-8.10285
-8.12689
-8.14902
-8.16934
-8.18808
-8.20553
-8.22208
-8.23819
-8.2544
-8.27128
-8.28938
-8.30923
-8.33123
-8.35565
-8.38258
-8.41185
-8.44315
-8.47597
-8.5097
-8.54359
-8.5768
-8.60843
-8.63753
-8.66317
-8.68448
-8.70067
-8.71109
-8.71516
-8.71241
-8.70234
-8.68465
-8.65905
-8.62533
-8.58343
-8.53332
-8.47508
-8.4088
-8.33453
-8.25225
-8.16193
-8.06351
-7.9569
-7.84202
-7.71875
-7.58698
-7.44658
-7.2975
-7.13965
-6.97309
-6.79787
-6.61412
-6.42208
-6.22207
-6.01446
-5.79971
-5.57844
-5.35129
-5.11907
-4.88257
-4.64272
-4.40033
-4.15631
-3.91145
-3.66653
-3.42218
-3.17906
-2.93768
-2.69849
-2.46188
-2.22808
-1.99729
-1.76959
-1.54498
-1.32339
-1.10467
-0.888552
-0.674709
-0.46273
-0.252192
-0.0426947
0.166153
0.374773
0.583652
0.793316
1.00424
1.21687
1.43159
1.64876
1.86867
2.0916
2.31769
2.54693
2.77918
3.01443
3.25258
3.49352
3.737
3.98277
4.23048
4.47973
4.7301
4.98113
5.23236
5.48331
5.73347
5.98231
6.22929
6.4739
6.71571
6.95428
7.18917
7.41991
7.64607
7.86716
8.08277
8.29208
8.49546
8.68794
8.88592
9.01602
-7.45535
-7.45873
-7.46545
-7.47377
-7.48191
-7.48935
-7.49633
-7.50314
-7.50993
-7.51658
-7.52287
-7.52862
-7.53368
-7.53794
-7.54136
-7.54396
-7.54573
-7.54666
-7.54675
-7.54602
-7.5445
-7.54226
-7.53934
-7.53583
-7.53179
-7.5273
-7.52239
-7.51718
-7.51177
-7.50632
-7.501
-7.49607
-7.49182
-7.4886
-7.48678
-7.48675
-7.48885
-7.49339
-7.50054
-7.51047
-7.52321
-7.53877
-7.55711
-7.57814
-7.60175
-7.62782
-7.65617
-7.68656
-7.71875
-7.7524
-7.78721
-7.82276
-7.85869
-7.89457
-7.92999
-7.9645
-7.99772
-8.02926
-8.05883
-8.08619
-8.1112
-8.1338
-8.15405
-8.1721
-8.18824
-8.20284
-8.21641
-8.22954
-8.24293
-8.25731
-8.27341
-8.29189
-8.31325
-8.3378
-8.36558
-8.39642
-8.42988
-8.46535
-8.50209
-8.53926
-8.57589
-8.61096
-8.64339
-8.67214
-8.69625
-8.71493
-8.72748
-8.73338
-8.73201
-8.72302
-8.70597
-8.6807
-8.64699
-8.60484
-8.55429
-8.4955
-8.42862
-8.35375
-8.27086
-8.1799
-8.08085
-7.97361
-7.85813
-7.73424
-7.60183
-7.46072
-7.31084
-7.15206
-6.98448
-6.80808
-6.62306
-6.42956
-6.22795
-6.01856
-5.80194
-5.57869
-5.34961
-5.11542
-4.87705
-4.6353
-4.39115
-4.14543
-3.89907
-3.65277
-3.40729
-3.16325
-2.92122
-2.68168
-2.44497
-2.21137
-1.98102
-1.75405
-1.53043
-1.31009
-1.09284
-0.878424
-0.666454
-0.456461
-0.248005
-0.0406435
0.166036
0.372509
0.579301
0.78697
0.99602
1.2069
1.42001
1.63572
1.85435
2.07619
2.30143
2.52998
2.7617
2.99655
3.2345
3.47539
3.71898
3.96493
4.21296
4.46263
4.71352
4.96513
5.21701
5.46864
5.71957
5.96921
6.21698
6.46231
6.70481
6.94404
7.17954
7.41083
7.63746
7.85892
8.07477
8.28417
8.48748
8.67952
8.8773
9.00528
-7.42861
-7.43233
-7.44039
-7.45037
-7.45963
-7.4678
-7.47544
-7.48284
-7.49022
-7.49765
-7.50487
-7.51153
-7.51731
-7.52202
-7.5258
-7.52879
-7.53102
-7.53245
-7.53307
-7.5329
-7.53195
-7.53029
-7.52793
-7.52494
-7.52135
-7.51723
-7.51264
-7.5077
-7.50249
-7.49717
-7.49194
-7.48707
-7.48284
-7.47962
-7.47776
-7.47764
-7.47958
-7.48387
-7.49071
-7.50029
-7.51268
-7.52796
-7.54615
-7.56723
-7.59114
-7.61779
-7.647
-7.67855
-7.71217
-7.74749
-7.78413
-7.82165
-7.85955
-7.89732
-7.93443
-7.97035
-8.00458
-8.03667
-8.06627
-8.09311
-8.11703
-8.13801
-8.15614
-8.17164
-8.18488
-8.19633
-8.20664
-8.21655
-8.22691
-8.23864
-8.25267
-8.2698
-8.29061
-8.31544
-8.3443
-8.37687
-8.4126
-8.45076
-8.49052
-8.53095
-8.57095
-8.60939
-8.64504
-8.67674
-8.70351
-8.72456
-8.73926
-8.74695
-8.74705
-8.73902
-8.72258
-8.69751
-8.66375
-8.62129
-8.57028
-8.51089
-8.44337
-8.36779
-8.28412
-8.19232
-8.09242
-7.98444
-7.86825
-7.74372
-7.61063
-7.46883
-7.31817
-7.15859
-6.99005
-6.81262
-6.62641
-6.4316
-6.22847
-6.01743
-5.79905
-5.57402
-5.34313
-5.10717
-4.86699
-4.62345
-4.37748
-4.12996
-3.88184
-3.63391
-3.387
-3.1418
-2.89892
-2.65884
-2.42193
-2.18845
-1.95855
-1.73232
-1.50976
-1.29079
-1.07522
-0.862737
-0.652947
-0.445373
-0.239495
-0.0347966
0.169276
0.373269
0.577743
0.783215
0.990197
1.19913
1.41046
1.62451
1.84166
2.06218
2.28633
2.514
2.74507
2.9795
3.21726
3.45818
3.70193
3.94813
4.19651
4.44664
4.69807
4.95031
5.20288
5.45528
5.70703
5.95759
6.20624
6.45238
6.69562
6.93554
7.17168
7.40355
7.63067
7.85254
8.06867
8.27817
8.48144
8.6731
8.87061
8.99708
-7.39948
-7.40394
-7.4138
-7.42582
-7.43623
-7.4447
-7.45267
-7.46099
-7.46955
-7.47803
-7.48618
-7.49369
-7.50012
-7.50526
-7.50936
-7.51269
-7.5153
-7.51714
-7.51819
-7.51845
-7.51796
-7.51674
-7.51482
-7.51225
-7.50905
-7.50529
-7.50102
-7.49632
-7.49129
-7.48609
-7.4809
-7.476
-7.47164
-7.46818
-7.46595
-7.46532
-7.46658
-7.47007
-7.47602
-7.48467
-7.49621
-7.51077
-7.52847
-7.54937
-7.57347
-7.60068
-7.63088
-7.66379
-7.69912
-7.73647
-7.77537
-7.81524
-7.85549
-7.89549
-7.93458
-7.9721
-8.00743
-8.04007
-8.0696
-8.09576
-8.11836
-8.13743
-8.15313
-8.16576
-8.1758
-8.18384
-8.19063
-8.19706
-8.20419
-8.21306
-8.2249
-8.24062
-8.26087
-8.28594
-8.3158
-8.34995
-8.38769
-8.42814
-8.47051
-8.51383
-8.55701
-8.59867
-8.63749
-8.67212
-8.70156
-8.72515
-8.74225
-8.75204
-8.75382
-8.74703
-8.73134
-8.70662
-8.67297
-8.63049
-8.57935
-8.51966
-8.45157
-8.3752
-8.29062
-8.19794
-8.09718
-7.98839
-7.87144
-7.74621
-7.61248
-7.47008
-7.31878
-7.15855
-6.98927
-6.81102
-6.62382
-6.42789
-6.22342
-6.01093
-5.79094
-5.56426
-5.33159
-5.09388
-4.85186
-4.60651
-4.35865
-4.10932
-3.85934
-3.60971
-3.36127
-3.11479
-2.87091
-2.63014
-2.39287
-2.15933
-1.92973
-1.70408
-1.48244
-1.26469
-1.05063
-0.839954
-0.632238
-0.427001
-0.223676
-0.0216426
0.179768
0.381201
0.583228
0.786364
0.991101
1.19792
1.40724
1.61944
1.83482
2.05365
2.2761
2.50231
2.73228
2.96597
3.20319
3.44376
3.68737
3.93369
4.18229
4.43277
4.68462
4.93738
5.19052
5.44359
5.69607
5.94745
6.19693
6.44388
6.68787
6.92852
7.16533
7.39783
7.6255
7.84781
8.06425
8.27389
8.47713
8.66842
8.86559
8.99115
-7.36976
-7.37521
-7.38732
-7.40124
-7.41204
-7.42083
-7.42978
-7.43926
-7.44892
-7.45843
-7.46754
-7.47587
-7.48291
-7.48847
-7.49291
-7.49656
-7.49946
-7.50159
-7.50292
-7.50348
-7.50329
-7.50241
-7.50087
-7.49871
-7.49594
-7.49259
-7.4887
-7.48433
-7.47954
-7.47446
-7.46922
-7.46406
-7.45921
-7.45502
-7.45176
-7.44984
-7.44957
-7.45138
-7.45555
-7.46249
-7.47244
-7.48571
-7.50248
-7.5229
-7.54701
-7.5748
-7.60611
-7.64063
-7.67803
-7.71778
-7.75932
-7.80187
-7.84474
-7.8871
-7.92823
-7.9673
-8.00368
-8.03676
-8.06615
-8.09147
-8.11261
-8.12958
-8.14261
-8.15211
-8.15865
-8.16307
-8.16621
-8.1691
-8.17288
-8.17885
-8.18827
-8.20233
-8.22156
-8.24627
-8.27626
-8.31105
-8.34984
-8.39179
-8.43614
-8.48207
-8.52847
-8.57395
-8.61698
-8.656
-8.68966
-8.71686
-8.73682
-8.74885
-8.75228
-8.74661
-8.7315
-8.70692
-8.6731
-8.6303
-8.57868
-8.51836
-8.4494
-8.37196
-8.2863
-8.19265
-8.09107
-7.98151
-7.86392
-7.73815
-7.60402
-7.46128
-7.30971
-7.14917
-6.97957
-6.80087
-6.61313
-6.41647