/*--------------------------------*- C++ -*----------------------------------*\
  =========                 |
  \\      /  F ield         | OpenFOAM: The Open Source CFD Toolbox
   \\    /   O peration     | Website:  https://openfoam.org
    \\  /    A nd           | Version:  13
     \\/     M anipulation  |
\*---------------------------------------------------------------------------*/
FoamFile
{
    format      ascii;
    class       surfaceScalarField;
    location    "800";
    object      phi;
}
// * * * * * * * * * * * * * * * * * * * * * * * * * * * * * * * * * * * * * //

dimensions      [0 3 -1 0 0 0 0];

internalField   nonuniform List<scalar> 
24170
(
3.04715e-06
1.4127e-07
2.88679e-06
1.60339e-07
2.73915e-06
1.4764e-07
2.60663e-06
1.32558e-07
2.49434e-06
1.12269e-07
2.40057e-06
9.37911e-08
2.32444e-06
7.61184e-08
2.26065e-06
6.37625e-08
2.20291e-06
5.77717e-08
2.14989e-06
5.30378e-08
2.1061e-06
4.37992e-08
2.07296e-06
3.31431e-08
2.0492e-06
2.37595e-08
2.03409e-06
1.51107e-08
2.02663e-06
7.44946e-09
2.02543e-06
1.20315e-09
2.02875e-06
-3.31784e-09
-4.97327e-09
2.03374e-06
3.4822e-06
7.63195e-08
3.53082e-06
1.1183e-07
3.55802e-06
1.20522e-07
3.5647e-06
1.25974e-07
3.55704e-06
1.19963e-07
3.54179e-06
1.09093e-07
3.52088e-06
9.70339e-08
3.4934e-06
9.12594e-08
3.46265e-06
8.85433e-08
3.43158e-06
8.4122e-08
3.40014e-06
7.52457e-08
3.36813e-06
6.51523e-08
3.33508e-06
5.68143e-08
3.30249e-06
4.7704e-08
3.27226e-06
3.76757e-08
3.2443e-06
2.9166e-08
3.21832e-06
2.26671e-08
1.92651e-08
3.19409e-06
3.6784e-06
6.045e-08
3.69636e-06
9.3823e-08
3.7152e-06
1.01675e-07
3.73359e-06
1.07619e-07
3.74912e-06
1.04392e-07
3.76239e-06
9.58321e-08
3.77276e-06
8.664e-08
3.78121e-06
8.27715e-08
3.78844e-06
8.13318e-08
3.79452e-06
7.80542e-08
3.79818e-06
7.15817e-08
3.79913e-06
6.42037e-08
3.79806e-06
5.78909e-08
3.79484e-06
5.09285e-08
3.78927e-06
4.32452e-08
3.78181e-06
3.66276e-08
3.77291e-06
3.15657e-08
2.81585e-08
3.76402e-06
3.93893e-06
4.68983e-08
3.9506e-06
8.21089e-08
3.95309e-06
9.91667e-08
3.95884e-06
1.01874e-07
3.96546e-06
9.77463e-08
3.97069e-06
9.06125e-08
3.97491e-06
8.24012e-08
3.97979e-06
7.78867e-08
3.98585e-06
7.52677e-08
3.99249e-06
7.14127e-08
3.99863e-06
6.54353e-08
4.00401e-06
5.88092e-08
4.00911e-06
5.27905e-08
4.0135e-06
4.65318e-08
4.01671e-06
4.00402e-08
4.01888e-06
3.44505e-08
4.02034e-06
3.01153e-08
2.71418e-08
4.02136e-06
4.21885e-06
3.51781e-08
4.22446e-06
7.64294e-08
4.23178e-06
9.18295e-08
4.23957e-06
9.40913e-08
4.2455e-06
9.17766e-08
4.24992e-06
8.61837e-08
4.25298e-06
7.93006e-08
4.25609e-06
7.47425e-08
4.25991e-06
7.14584e-08
4.26402e-06
6.73048e-08
4.26774e-06
6.17109e-08
4.27098e-06
5.55694e-08
4.27407e-06
4.97002e-08
4.27683e-06
4.37705e-08
4.27898e-06
3.78955e-08
4.28062e-06
3.28071e-08
4.282e-06
2.87361e-08
2.57286e-08
4.28341e-06
4.51935e-06
2.48976e-08
4.52608e-06
6.95804e-08
4.53342e-06
8.44081e-08
4.53866e-06
8.87988e-08
4.54418e-06
8.62065e-08
4.54902e-06
8.1321e-08
4.55259e-06
7.57044e-08
4.55602e-06
7.12926e-08
4.55984e-06
6.76329e-08
4.56373e-06
6.33986e-08
4.56724e-06
5.81955e-08
4.57025e-06
5.2545e-08
4.57295e-06
4.69933e-08
4.57526e-06
4.14598e-08
4.57704e-06
3.61125e-08
4.57843e-06
3.14166e-08
4.57962e-06
2.75458e-08
2.45303e-08
4.58082e-06
4.83781e-06
1.98067e-08
4.84691e-06
6.04284e-08
4.85421e-06
7.70966e-08
4.86026e-06
8.2746e-08
4.86621e-06
8.02246e-08
4.87122e-06
7.6298e-08
4.87516e-06
7.17373e-08
4.87893e-06
6.74962e-08
4.88288e-06
6.3684e-08
4.88679e-06
5.94881e-08
4.89037e-06
5.46228e-08
4.89349e-06
4.94185e-08
4.89623e-06
4.42527e-08
4.89855e-06
3.91455e-08
4.90038e-06
3.42733e-08
4.90186e-06
2.99408e-08
4.90314e-06
2.62641e-08
2.3273e-08
4.90439e-06
5.18264e-06
1.67368e-08
5.19076e-06
5.22275e-08
5.19853e-06
6.92687e-08
5.20608e-06
7.5147e-08
5.21236e-06
7.38995e-08
5.21755e-06
7.10792e-08
5.22192e-06
6.73448e-08
5.22597e-06
6.34244e-08
5.23002e-06
5.96335e-08
5.23394e-06
5.5563e-08
5.23754e-06
5.10114e-08
5.24074e-06
4.6211e-08
5.24356e-06
4.14295e-08
5.24597e-06
3.67325e-08
5.24796e-06
3.2281e-08
5.24962e-06
2.8283e-08
5.25107e-06
2.48069e-08
2.18823e-08
5.25246e-06
5.55338e-06
1.4693e-08
5.5608e-06
4.47881e-08
5.56871e-06
6.13525e-08
5.57638e-06
6.74831e-08
5.58278e-06
6.74885e-08
5.58826e-06
6.55877e-08
5.59303e-06
6.25587e-08
5.5974e-06
5.90337e-08
5.60163e-06
5.54015e-08
5.60569e-06
5.15057e-08
5.60944e-06
4.72624e-08
5.61281e-06
4.28421e-08
5.6158e-06
3.84398e-08
5.6184e-06
3.41356e-08
5.6206e-06
3.00738e-08
5.62249e-06
2.63911e-08
5.62416e-06
2.31341e-08
2.0321e-08
5.62572e-06
5.95151e-06
1.29583e-08
5.95813e-06
3.81173e-08
5.96583e-06
5.36171e-08
5.97324e-06
6.00349e-08
5.97971e-06
6.09888e-08
5.98545e-06
5.98308e-08
5.99057e-06
5.74142e-08
5.99527e-06
5.43136e-08
5.99974e-06
5.09311e-08
6.00396e-06
4.7274e-08
6.00787e-06
4.33485e-08
6.01142e-06
3.92908e-08
6.0146e-06
3.5255e-08
6.01741e-06
3.13315e-08
6.01984e-06
2.76416e-08
6.02196e-06
2.42684e-08
6.02384e-06
2.12448e-08
1.85859e-08
6.02557e-06
6.37844e-06
1.13208e-08
6.38419e-06
3.2371e-08
6.39149e-06
4.63094e-08
6.3987e-06
5.28281e-08
6.40525e-06
5.44298e-08
6.4112e-06
5.38693e-08
6.41662e-06
5.19798e-08
6.42162e-06
4.93022e-08
6.42632e-06
4.6228e-08
6.43073e-06
4.28681e-08
6.4348e-06
3.92776e-08
6.43851e-06
3.55843e-08
6.44185e-06
3.19091e-08
6.44483e-06
2.83509e-08
6.44747e-06
2.50056e-08
6.4498e-06
2.19326e-08
6.45189e-06
1.9154e-08
1.66734e-08
6.45379e-06
5.74218e-06
9.97354e-09
5.74645e-06
2.8098e-08
5.75219e-06
4.05499e-08
5.7581e-06
4.69121e-08
5.76366e-06
4.88535e-08
5.76883e-06
4.86856e-08
5.77361e-06
4.71921e-08
5.77804e-06
4.48669e-08
5.78218e-06
4.20852e-08
5.78604e-06
3.90025e-08
5.78961e-06
3.57097e-08
5.79287e-06
3.23212e-08
5.79583e-06
2.89639e-08
5.79847e-06
2.5704e-08
5.80084e-06
2.26424e-08
5.80296e-06
1.98134e-08
5.80486e-06
1.72442e-08
1.49298e-08
5.8066e-06
6.99961e-06
8.51693e-09
7.00401e-06
2.36975e-08
7.01011e-06
3.4446e-08
7.01661e-06
4.04094e-08
7.02294e-06
4.25229e-08
7.02895e-06
4.26658e-08
7.03459e-06
4.15413e-08
7.03986e-06
3.95895e-08
7.0448e-06
3.71472e-08
7.0494e-06
3.44026e-08
7.05364e-06
3.14602e-08
7.05753e-06
2.84411e-08
7.06105e-06
2.54362e-08
7.06423e-06
2.25349e-08
7.06708e-06
1.97874e-08
7.06965e-06
1.72474e-08
7.07197e-06
1.49154e-08
1.28133e-08
7.07409e-06
8.5324e-06
6.96499e-09
8.53686e-06
1.9242e-08
8.54322e-06
2.80919e-08
8.55026e-06
3.33769e-08
8.55732e-06
3.54621e-08
8.56418e-06
3.5803e-08
8.57073e-06
3.49904e-08
8.57691e-06
3.34055e-08
8.58272e-06
3.13376e-08
8.58814e-06
2.89775e-08
8.59316e-06
2.64402e-08
8.59776e-06
2.38353e-08
8.60196e-06
2.12426e-08
8.60576e-06
1.8734e-08
8.6092e-06
1.63549e-08
8.6123e-06
1.41398e-08
8.61512e-06
1.21014e-08
1.02439e-08
8.61768e-06
1.04008e-05
5.33517e-09
1.04053e-05
1.47637e-08
1.04119e-05
2.15598e-08
1.04194e-05
2.58668e-08
1.04272e-05
2.77037e-08
1.04349e-05
2.80939e-08
1.04423e-05
2.75163e-08
1.04495e-05
2.62667e-08
1.04562e-05
2.45909e-08
1.04626e-05
2.26454e-08
1.04684e-05
2.05631e-08
1.04738e-05
1.8411e-08
1.04788e-05
1.62819e-08
1.04833e-05
1.42068e-08
1.04875e-05
1.22448e-08
1.04912e-05
1.04016e-08
1.04946e-05
8.7049e-09
7.15031e-09
1.04977e-05
1.26785e-05
3.66727e-09
1.2683e-05
1.02356e-08
1.26897e-05
1.48473e-08
1.26977e-05
1.79086e-08
1.27061e-05
1.92406e-08
1.27147e-05
1.95194e-08
1.27232e-05
1.90677e-08
1.27313e-05
1.81097e-08
1.27391e-05
1.68152e-08
1.27464e-05
1.53221e-08
1.27533e-05
1.37136e-08
1.27596e-05
1.20724e-08
1.27655e-05
1.04349e-08
1.27708e-05
8.85461e-09
1.27757e-05
7.34438e-09
1.27802e-05
5.93632e-09
1.27843e-05
4.62428e-09
3.43357e-09
1.2788e-05
1.54549e-05
1.96325e-09
1.54596e-05
5.55742e-09
1.54666e-05
7.84594e-09
1.54751e-05
9.40648e-09
1.54843e-05
9.98679e-09
1.54939e-05
9.96947e-09
1.55034e-05
9.53032e-09
1.55127e-05
8.79966e-09
1.55217e-05
7.87786e-09
1.55301e-05
6.84493e-09
1.55381e-05
5.7573e-09
1.55455e-05
4.65735e-09
1.55524e-05
3.57317e-09
1.55587e-05
2.52862e-09
1.55645e-05
1.53721e-09
1.55698e-05
6.11467e-10
1.55747e-05
-2.47339e-10
-1.02378e-09
1.55792e-05
1.88394e-05
1.57798e-10
1.88445e-05
4.93292e-10
1.88521e-05
2.28961e-10
1.88615e-05
3.49584e-11
1.88718e-05
-3.78814e-10
1.88827e-05
-8.65126e-10
1.88936e-05
-1.39971e-09
1.89043e-05
-1.95384e-09
1.89147e-05
-2.50779e-09
1.89246e-05
-3.04785e-09
1.89339e-05
-3.56679e-09
1.89426e-05
-4.05944e-09
1.89507e-05
-4.5231e-09
1.89582e-05
-4.95562e-09
1.89651e-05
-5.35573e-09
1.89715e-05
-5.72232e-09
1.89773e-05
-6.05776e-09
-6.34606e-09
1.89826e-05
2.29655e-05
-1.96084e-09
2.29714e-05
-5.51385e-09
2.29804e-05
-8.77601e-09
2.29915e-05
-1.10479e-08
2.30038e-05
-1.26798e-08
2.30167e-05
-1.37696e-08
2.30297e-05
-1.4459e-08
2.30426e-05
-1.48248e-08
2.3055e-05
-1.49538e-08
2.30669e-05
-1.49051e-08
2.30781e-05
-1.4744e-08
2.30885e-05
-1.45028e-08
2.30982e-05
-1.42198e-08
2.31071e-05
-1.39113e-08
2.31154e-05
-1.36003e-08
2.3123e-05
-1.32924e-08
2.31299e-05
-1.30021e-08
-1.27051e-08
2.31363e-05
1.68125e-05
-3.74842e-09
1.68174e-05
-1.04559e-08
1.68247e-05
-1.60385e-08
1.68334e-05
-1.98063e-08
1.6843e-05
-2.2263e-08
1.68529e-05
-2.37473e-08
1.6863e-05
-2.44789e-08
1.68727e-05
-2.46465e-08
1.68822e-05
-2.43765e-08
1.68911e-05
-2.38359e-08
1.68995e-05
-2.31004e-08
1.69072e-05
-2.22704e-08
1.69144e-05
-2.13773e-08
1.69209e-05
-2.04867e-08
1.6927e-05
-1.96077e-08
1.69324e-05
-1.87805e-08
1.69374e-05
-1.8002e-08
-1.7264e-08
1.6942e-05
1.46365e-05
-5.65755e-09
1.46416e-05
-1.56159e-08
1.46489e-05
-2.33778e-08
1.46575e-05
-2.83845e-08
1.46667e-05
-3.14765e-08
1.46762e-05
-3.32124e-08
1.46856e-05
-3.3903e-08
1.46947e-05
-3.37686e-08
1.47033e-05
-3.30645e-08
1.47115e-05
-3.19786e-08
1.47191e-05
-3.06712e-08
1.4726e-05
-2.92313e-08
1.47324e-05
-2.77461e-08
1.47382e-05
-2.62677e-08
1.47434e-05
-2.48491e-08
1.47482e-05
-2.35117e-08
1.47524e-05
-2.22836e-08
-2.11245e-08
1.47563e-05
1.27423e-05
-7.84003e-09
1.2748e-05
-2.12886e-08
1.27556e-05
-3.10501e-08
1.27642e-05
-3.6977e-08
1.27732e-05
-4.04923e-08
1.27823e-05
-4.2356e-08
1.27913e-05
-4.28776e-08
1.27999e-05
-4.23557e-08
1.28079e-05
-4.11257e-08
1.28154e-05
-3.94636e-08
1.28223e-05
-3.75478e-08
1.28286e-05
-3.54949e-08
1.28342e-05
-3.34034e-08
1.28393e-05
-3.13415e-08
1.28438e-05
-2.93818e-08
1.28479e-05
-2.75518e-08
1.28515e-05
-2.58909e-08
-2.43437e-08
1.28547e-05
1.10935e-05
-1.04591e-08
1.11e-05
-2.77598e-08
1.11081e-05
-3.91425e-08
1.11167e-05
-4.56171e-08
1.11256e-05
-4.93452e-08
1.11344e-05
-5.11897e-08
1.11429e-05
-5.13849e-08
1.11509e-05
-5.03475e-08
1.11583e-05
-4.85238e-08
1.11651e-05
-4.62465e-08
1.11712e-05
-4.37143e-08
1.11768e-05
-4.10558e-08
1.11817e-05
-3.83586e-08
1.11861e-05
-3.57243e-08
1.11899e-05
-3.32202e-08
1.11933e-05
-3.09136e-08
1.11963e-05
-2.88315e-08
-2.69131e-08
1.11988e-05
9.65844e-06
-1.36831e-08
9.66597e-06
-3.52915e-08
9.67447e-06
-4.76348e-08
9.68307e-06
-5.4224e-08
9.69166e-06
-5.79345e-08
9.70001e-06
-5.9546e-08
9.70789e-06
-5.92658e-08
9.71517e-06
-5.76342e-08
9.72184e-06
-5.51968e-08
9.72791e-06
-5.23175e-08
9.73339e-06
-4.91983e-08
9.73829e-06
-4.59602e-08
9.7426e-06
-4.26863e-08
9.74636e-06
-3.94827e-08
9.74959e-06
-3.64582e-08
9.75236e-06
-3.36801e-08
9.75473e-06
-3.12041e-08
-2.89267e-08
9.75674e-06
8.40944e-06
-1.77737e-08
8.41828e-06
-4.41263e-08
8.42703e-06
-5.63811e-08
8.43535e-06
-6.25406e-08
8.44346e-06
-6.60408e-08
8.4512e-06
-6.72953e-08
8.45843e-06
-6.64989e-08
8.46509e-06
-6.42902e-08
8.47115e-06
-6.12601e-08
8.47661e-06
-5.77771e-08
8.48152e-06
-5.41086e-08
8.48589e-06
-5.03357e-08
8.4897e-06
-4.6506e-08
8.49296e-06
-4.27415e-08
8.49569e-06
-3.91934e-08
8.49796e-06
-3.5948e-08
8.49984e-06
-3.30948e-08
-3.04217e-08
8.50134e-06
7.32269e-06
-2.31769e-08
7.33293e-06
-5.43646e-08
7.34173e-06
-6.51834e-08
7.34973e-06
-7.05378e-08
7.35743e-06
-7.37379e-08
7.36467e-06
-7.45334e-08
7.37137e-06
-7.3198e-08
7.37751e-06
-7.04349e-08
7.38304e-06
-6.67832e-08
7.38797e-06
-6.27043e-08
7.3924e-06
-5.85432e-08
7.39638e-06
-5.43179e-08
7.39983e-06
-4.99576e-08
7.40273e-06
-4.56418e-08
7.40511e-06
-4.15722e-08
7.40704e-06
-3.78811e-08
7.40861e-06
-3.46768e-08
-3.16395e-08
7.40982e-06
6.37781e-06
-3.0926e-08
6.3892e-06
-6.57464e-08
6.39847e-06
-7.44524e-08
6.40714e-06
-7.92262e-08
6.4154e-06
-8.19868e-08
6.42293e-06
-8.20569e-08
6.42975e-06
-8.00258e-08
6.43603e-06
-7.67119e-08
6.44171e-06
-7.24602e-08
6.44687e-06
-6.78577e-08
6.4517e-06
-6.33807e-08
6.45621e-06
-5.88187e-08
6.46028e-06
-5.40293e-08
6.46386e-06
-4.92196e-08
6.46696e-06
-4.46724e-08
6.46962e-06
-4.05501e-08
6.47193e-06
-3.69894e-08
-3.37309e-08
6.47401e-06
5.55999e-06
-4.54535e-08
5.57515e-06
-8.09104e-08
5.58952e-06
-8.88206e-08
5.60405e-06
-9.37693e-08
5.61866e-06
-9.65933e-08
5.63282e-06
-9.62112e-08
5.64654e-06
-9.37399e-08
5.65962e-06
-8.9792e-08
5.67177e-06
-8.46083e-08
5.68292e-06
-7.90072e-08
5.69315e-06
-7.36203e-08
5.70231e-06
-6.79718e-08
5.71007e-06
-6.17808e-08
5.71631e-06
-5.54628e-08
5.72105e-06
-4.94101e-08
5.72439e-06
-4.38887e-08
5.72646e-06
-3.90705e-08
-3.50401e-08
5.72776e-06
4.88482e-06
-1.02672e-07
4.92658e-06
-1.22667e-07
4.96243e-06
-1.24672e-07
4.98962e-06
-1.20978e-07
5.00705e-06
-1.14016e-07
5.01654e-06
-1.05698e-07
5.0198e-06
-9.69985e-08
5.01809e-06
-8.80711e-08
5.01269e-06
-7.92129e-08
5.00443e-06
-7.0748e-08
4.99357e-06
-6.27628e-08
4.98063e-06
-5.50253e-08
4.96614e-06
-4.72854e-08
4.95003e-06
-3.9351e-08
4.93217e-06
-3.15482e-08
4.91288e-06
-2.46037e-08
4.89255e-06
-1.87483e-08
-1.42059e-08
4.8717e-06
4.1e-06
3.97734e-06
3.85266e-06
3.73169e-06
3.61767e-06
3.51197e-06
3.41497e-06
3.3269e-06
3.24769e-06
3.17694e-06
3.11418e-06
3.05916e-06
3.01187e-06
2.97252e-06
2.94097e-06
2.91637e-06
2.89761e-06
2.88341e-06
-6.82961e-09
6.82429e-09
-1.85457e-08
1.17192e-08
-3.09497e-08
1.23907e-08
-4.06657e-08
9.72096e-09
-4.29406e-08
2.25223e-09
-3.31297e-08
-9.80489e-09
-1.03965e-08
-2.27665e-08
2.30789e-08
-3.34694e-08
6.34443e-08
-4.03998e-08
1.06538e-07
-4.30817e-08
1.48815e-07
-4.23057e-08
1.87967e-07
-3.91337e-08
2.2235e-07
-3.44095e-08
2.51099e-07
-2.87246e-08
2.73553e-07
-2.24801e-08
2.89461e-07
-1.58805e-08
2.98457e-07
-9.02605e-09
3.00341e-07
-1.85743e-09
2.94763e-07
5.54646e-09
2.81894e-07
1.28913e-08
2.62046e-07
1.98109e-08
2.36079e-07
2.59851e-08
2.04981e-07
3.10569e-08
1.70361e-07
3.4634e-08
1.34035e-07
3.62812e-08
9.83694e-08
3.5672e-08
6.56202e-08
3.26888e-08
3.79719e-08
2.76428e-08
1.65906e-08
2.1309e-08
1.84542e-09
1.47225e-08
-7.02923e-09
8.78992e-09
-1.08282e-08
3.76496e-09
-1.00188e-08
-9.05777e-10
-3.97407e-09
-6.08148e-09
8.67943e-09
-1.2774e-08
2.99771e-08
-2.13188e-08
5.8919e-08
-2.90484e-08
9.15243e-08
-3.25994e-08
1.22178e-07
-3.07346e-08
1.46755e-07
-2.45526e-08
1.62671e-07
-1.59783e-08
1.69385e-07
-6.67865e-09
1.67525e-07
1.81558e-09
1.59893e-07
7.67573e-09
1.5014e-07
9.71561e-09
1.42663e-07
7.57041e-09
1.40348e-07
2.25126e-09
1.40555e-07
2.71581e-11
1.32976e-07
7.41419e-09
1.12083e-07
2.12304e-08
7.10068e-08
4.08221e-08
5.6749e-09
6.56538e-08
-8.36954e-08
8.9111e-08
-1.88872e-07
1.05374e-07
-3.07391e-07
1.18276e-07
-4.35776e-07
1.28495e-07
-5.7088e-07
1.3492e-07
-7.08727e-07
1.3791e-07
-8.46347e-07
1.37451e-07
-9.80052e-07
1.33737e-07
-1.10797e-06
1.27792e-07
-1.22821e-06
1.20247e-07
-1.34005e-06
1.11719e-07
-1.44314e-06
1.03073e-07
-1.53819e-06
9.49578e-08
-1.62454e-06
8.63262e-08
-1.70355e-06
7.89469e-08
-1.77681e-06
7.32388e-08
-1.84457e-06
6.77265e-08
-1.90774e-06
6.31513e-08
-1.96697e-06
5.92115e-08
-2.02285e-06
5.58768e-08
-2.07591e-06
5.30592e-08
-2.12656e-06
5.06644e-08
-2.17517e-06
4.86183e-08
-2.22197e-06
4.68487e-08
-2.26722e-06
4.52848e-08
-2.31103e-06
4.38783e-08
-2.35359e-06
4.25674e-08
-2.39485e-06
4.13284e-08
-2.43495e-06
4.01077e-08
-2.4738e-06
3.88959e-08
-2.51146e-06
3.76521e-08
-2.54782e-06
3.63823e-08
-2.5829e-06
3.50598e-08
-2.61659e-06
3.36889e-08
-2.64886e-06
3.22541e-08
-2.67961e-06
3.07527e-08
-2.70879e-06
2.91687e-08
-2.73627e-06
2.75139e-08
-2.76199e-06
2.5763e-08
-2.78585e-06
2.39366e-08
-2.8078e-06
2.20145e-08
-2.82772e-06
2.00086e-08
-2.84554e-06
1.78976e-08
-2.86113e-06
1.56908e-08
-2.87442e-06
1.3364e-08
-2.88526e-06
1.09183e-08
-2.89355e-06
8.34028e-09
-2.89916e-06
5.64475e-09
-2.90206e-06
2.90867e-09
-2.90239e-06
3.069e-10
-2.90043e-06
-2.00694e-09
-2.8964e-06
-4.12049e-09
-2.89032e-06
-6.15074e-09
-2.88224e-06
-8.16308e-09
-2.87214e-06
-1.01378e-08
-2.86006e-06
-1.21005e-08
-2.84601e-06
-1.40221e-08
-2.83006e-06
-1.59192e-08
-2.81221e-06
-1.77663e-08
-2.79254e-06
-1.9571e-08
-2.77111e-06
-2.13154e-08
-2.74798e-06
-2.29988e-08
-2.72322e-06
-2.46147e-08
-2.69691e-06
-2.61539e-08
-2.66914e-06
-2.76172e-08
-2.64001e-06
-2.89866e-08
-2.60962e-06
-3.02608e-08
-2.57807e-06
-3.14151e-08
-2.54546e-06
-3.24527e-08
-2.51188e-06
-3.33524e-08
-2.47749e-06
-3.41574e-08
-2.44239e-06
-3.48301e-08
-2.40677e-06
-3.54344e-08
-2.37068e-06
-3.59018e-08
-2.3343e-06
-3.6315e-08
-2.29763e-06
-3.66125e-08
-2.26083e-06
-3.68616e-08
-2.22391e-06
-3.69984e-08
-2.18701e-06
-3.70937e-08
-2.15012e-06
-3.71024e-08
-2.11334e-06
-3.70844e-08
-2.07666e-06
-3.69946e-08
-2.04016e-06
-3.68746e-08
-2.00382e-06
-3.67055e-08
-1.9677e-06
-3.64814e-08
-1.93177e-06
-3.62476e-08
-1.89583e-06
-3.6154e-08
-1.8598e-06
-3.61376e-08
-1.82374e-06
-3.60739e-08
-1.78761e-06
-3.60471e-08
-1.75134e-06
-3.61369e-08
-1.71483e-06
-3.63014e-08
-1.67808e-06
-3.65181e-08
-1.64099e-06
-3.6797e-08
-1.60349e-06
-3.71979e-08
-1.56548e-06
-3.76729e-08
-1.52694e-06
-3.82125e-08
-1.48774e-06
-3.88492e-08
-1.44784e-06
-3.95611e-08
-1.40714e-06
-4.03427e-08
-1.36561e-06
-4.11883e-08
-1.32317e-06
-4.20819e-08
-1.27982e-06
-4.30231e-08
-1.2355e-06
-4.39999e-08
-1.19019e-06
-4.50068e-08
-1.14387e-06
-4.60361e-08
-1.09652e-06
-4.7084e-08
-1.04814e-06
-4.81347e-08
-9.98713e-07
-4.92028e-08
-9.48268e-07
-5.02519e-08
-8.96798e-07
-5.12962e-08
-8.44336e-07
-5.23264e-08
-7.90883e-07
-5.3332e-08
-7.36492e-07
-5.43132e-08
-6.81166e-07
-5.52569e-08
-6.24984e-07
-5.61588e-08
-5.6795e-07
-5.70079e-08
-5.10169e-07
-5.78006e-08
-4.51657e-07
-5.85202e-08
-3.92549e-07
-5.91584e-08
-3.32897e-07
-5.96839e-08
-2.72925e-07
-6.00448e-08
-2.12826e-07
-6.01537e-08
-1.53087e-07
-5.98322e-08
-9.40909e-08
-5.90648e-08
-3.75035e-08
-5.66721e-08
1.62516e-08
-5.37969e-08
-3.02955e-08
4.65163e-08
-2.96411e-09
9.7776e-09
-7.74595e-09
1.65026e-08
-8.75108e-09
1.33614e-08
5.7749e-10
3.88763e-10
2.36085e-08
-2.08166e-08
5.9028e-08
-4.52272e-08
1.02393e-07
-6.61576e-08
1.4867e-07
-7.97459e-08
1.93739e-07
-8.54881e-08
2.35361e-07
-8.46991e-08
2.72332e-07
-7.92914e-08
3.04219e-07
-7.10124e-08
3.3094e-07
-6.11428e-08
3.52728e-07
-5.05012e-08
3.69812e-07
-3.95761e-08
3.82562e-07
-2.86165e-08
3.9126e-07
-1.77388e-08
3.96415e-07
-7.00039e-09
3.98293e-07
3.64998e-09
3.96867e-07
1.43272e-08
3.91637e-07
2.50194e-08
3.8208e-07
3.55432e-08
3.67575e-07
4.55393e-08
3.47743e-07
5.44641e-08
3.22387e-07
6.1609e-08
2.91869e-07
6.61823e-08
2.57075e-07
6.74471e-08
2.1974e-07
6.49678e-08
1.82238e-07
5.87624e-08
1.47612e-07
4.93303e-08
1.18937e-07
3.73898e-08
9.9057e-08
2.36111e-08
8.97153e-08
8.3288e-09
9.15069e-08
-7.91958e-09
1.03688e-07
-2.50626e-08
1.2353e-07
-4.11843e-08
1.45546e-07
-5.11404e-08
1.64227e-07
-5.12756e-08
1.76263e-07
-4.28186e-08
1.80954e-07
-2.92169e-08
1.78809e-07
-1.3869e-08
1.70991e-07
1.18125e-09
1.58513e-07
1.42423e-08
1.428e-07
2.34583e-08
1.20801e-07
3.15879e-08
8.46745e-08
4.38236e-08
2.49416e-08
6.18106e-08
-6.33561e-08
8.84408e-08
-1.77343e-07
1.21304e-07
-3.09599e-07
1.53522e-07
-4.52941e-07
1.84125e-07
-5.99914e-07
2.12651e-07
-7.47263e-07
2.36429e-07
-8.94778e-07
2.52898e-07
-1.03932e-06
2.62784e-07
-1.17737e-06
2.6655e-07
-1.30647e-06
2.63982e-07
-1.42423e-06
2.55656e-07
-1.52974e-06
2.42926e-07
-1.6234e-06
2.27393e-07
-1.70622e-06
2.10571e-07
-1.77949e-06
1.93504e-07
-1.84481e-06
1.77003e-07
-1.90345e-06
1.61685e-07
-1.95641e-06
1.47883e-07
-2.00551e-06
1.35404e-07
-2.05113e-06
1.24547e-07
-2.09342e-06
1.15511e-07
-2.13347e-06
1.0776e-07
-2.17156e-06
1.01233e-07
-2.20809e-06
9.57239e-08
-2.24327e-06
9.10566e-08
-2.2773e-06
8.70784e-08
-2.31027e-06
8.36492e-08
-2.34229e-06
8.06476e-08
-2.37339e-06
7.79694e-08
-2.4036e-06
7.55221e-08
-2.43293e-06
7.32322e-08
-2.46137e-06
7.10309e-08
-2.48888e-06
6.88707e-08
-2.51546e-06
6.67003e-08
-2.54103e-06
6.44916e-08
-2.56559e-06
6.22101e-08
-2.58905e-06
5.9844e-08
-2.61137e-06
5.73727e-08
-2.63248e-06
5.4793e-08
-2.65232e-06
5.20918e-08
-2.67084e-06
4.92624e-08
-2.68796e-06
4.63048e-08
-2.70365e-06
4.32034e-08
-2.71783e-06
3.99763e-08
-2.73047e-06
3.66152e-08
-2.74152e-06
3.31255e-08
-2.75098e-06
2.95108e-08
-2.7588e-06
2.57761e-08
-2.76499e-06
2.19333e-08
-2.76957e-06
1.79974e-08
-2.77261e-06
1.39961e-08
-2.7742e-06
9.95844e-09
-2.77446e-06
5.92091e-09
-2.77348e-06
1.91472e-09
-2.77114e-06
-2.05562e-09
-2.76719e-06
-6.02287e-09
-2.76138e-06
-9.98981e-09
-2.75367e-06
-1.39332e-08
-2.74404e-06
-1.78516e-08
-2.73248e-06
-2.17325e-08
-2.71901e-06
-2.55757e-08
-2.70366e-06
-2.9363e-08
-2.68645e-06
-3.30907e-08
-2.66743e-06
-3.67365e-08
-2.64663e-06
-4.02933e-08
-2.62412e-06
-4.37381e-08
-2.59996e-06
-4.70633e-08
-2.57422e-06
-5.02484e-08
-2.54698e-06
-5.32855e-08
-2.51832e-06
-5.61546e-08
-2.48837e-06
-5.88471e-08
-2.4572e-06
-6.13364e-08
-2.42492e-06
-6.36021e-08
-2.39161e-06
-6.56279e-08
-2.35739e-06
-6.74092e-08
-2.32238e-06
-6.89662e-08
-2.28674e-06
-7.03025e-08
-2.25056e-06
-7.14483e-08
-2.21397e-06
-7.23855e-08
-2.17706e-06
-7.3153e-08
-2.13992e-06
-7.37312e-08
-2.10264e-06
-7.41617e-08
-2.06529e-06
-7.44235e-08
-2.02793e-06
-7.45682e-08
-1.99061e-06
-7.45821e-08
-1.95337e-06
-7.45187e-08
-1.91622e-06
-7.43636e-08
-1.87917e-06
-7.4165e-08
-1.8422e-06
-7.39198e-08
-1.80525e-06
-7.367e-08
-1.76824e-06
-7.34369e-08
-1.73122e-06
-7.33058e-08
-1.69416e-06
-7.32282e-08
-1.65701e-06
-7.32122e-08
-1.61968e-06
-7.3293e-08
-1.58214e-06
-7.35702e-08
-1.5443e-06
-7.39789e-08
-1.5061e-06
-7.45419e-08
-1.46743e-06
-7.52452e-08
-1.42827e-06
-7.6143e-08
-1.3885e-06
-7.71955e-08
-1.34805e-06
-7.84215e-08
-1.30685e-06
-7.9793e-08
-1.26483e-06
-8.13248e-08
-1.22194e-06
-8.29746e-08
-1.17813e-06
-8.47522e-08
-1.13334e-06
-8.66128e-08
-1.08756e-06
-8.85645e-08
-1.04075e-06
-9.05736e-08
-9.92906e-07
-9.26391e-08
-9.44003e-07
-9.47352e-08
-8.9404e-07
-9.68603e-08
-8.4302e-07
-9.89849e-08
-7.90957e-07
-1.01114e-07
-7.37863e-07
-1.03218e-07
-6.83756e-07
-1.05291e-07
-6.2867e-07
-1.07331e-07
-5.72624e-07
-1.09311e-07
-5.15667e-07
-1.11236e-07
-4.57822e-07
-1.13078e-07
-3.99156e-07
-1.14836e-07
-3.39698e-07
-1.16481e-07
-2.7953e-07
-1.18016e-07
-2.18694e-07
-1.19403e-07
-1.57297e-07
-1.20632e-07
-9.5411e-08
-1.21639e-07
-3.31766e-08
-1.22376e-07
2.92741e-08
-1.22693e-07
9.15901e-08
-1.2226e-07
1.53094e-07
-1.20665e-07
2.13198e-07
-1.1688e-07
2.68367e-07
-1.09047e-07
-8.38514e-08
3.2184e-07
2.53017e-10
9.51295e-09
4.5153e-09
1.22311e-08
2.03719e-08
-2.52163e-09
5.32773e-08
-3.25215e-08
1.00099e-07
-6.76555e-08
1.51726e-07
-9.68557e-08
2.00253e-07
-1.14698e-07
2.41689e-07
-1.21182e-07
2.75163e-07
-1.18972e-07
3.01582e-07
-1.11115e-07
3.22304e-07
-1.00021e-07
3.38599e-07
-8.73012e-08
3.5136e-07
-7.39107e-08
3.61236e-07
-6.03685e-08
3.68596e-07
-4.69427e-08
3.73748e-07
-3.37593e-08
3.76873e-07
-2.08718e-08
3.78194e-07
-8.31248e-09
3.77915e-07
3.9177e-09
3.76381e-07
1.58666e-08
3.73807e-07
2.75792e-08
3.70291e-07
3.90594e-08
3.65597e-07
5.02133e-08
3.5926e-07
6.07961e-08
3.50478e-07
7.03667e-08
3.38385e-07
7.82632e-08
3.22192e-07
8.36114e-08
3.01712e-07
8.54297e-08
2.7761e-07
8.28332e-08
2.5166e-07
7.52576e-08
2.26391e-07
6.2618e-08
2.04603e-07
4.53711e-08
1.88404e-07
2.44713e-08
1.7906e-07
1.39059e-09
1.75386e-07
-2.14459e-08
1.72663e-07
-3.84784e-08
1.65235e-07
-4.37497e-08
1.51725e-07
-3.77612e-08
1.32849e-07
-2.39662e-08
1.09111e-07
-5.4593e-09
8.0299e-08
1.49116e-08
4.48138e-08
3.66939e-08
-1.89818e-09
6.09004e-08
-6.609e-08
8.76508e-08
-1.52359e-07
1.17809e-07
-2.60782e-07
1.52235e-07
-3.88666e-07
1.89666e-07
-5.28292e-07
2.2806e-07
-6.71697e-07
2.64688e-07
-8.14623e-07
2.96446e-07
-9.5265e-07
3.22133e-07
-1.08116e-06
3.41159e-07
-1.19754e-06
3.52801e-07
-1.30149e-06
3.56843e-07
-1.39268e-06
3.53958e-07
-1.47109e-06
3.44959e-07
-1.53796e-06
3.30834e-07
-1.59525e-06
3.12942e-07
-1.64514e-06
2.92797e-07
-1.68953e-06
2.71779e-07
-1.72998e-06
2.51004e-07
-1.76769e-06
2.31211e-07
-1.80355e-06
2.12848e-07
-1.83807e-06
1.96195e-07
-1.87156e-06
1.81357e-07
-1.90445e-06
1.68291e-07
-1.93686e-06
1.56949e-07
-1.96862e-06
1.47256e-07
-1.99982e-06
1.3896e-07
-2.03049e-06
1.31887e-07
-2.06063e-06
1.25856e-07
-2.09026e-06
1.20686e-07
-2.1194e-06
1.16213e-07
-2.14804e-06
1.12291e-07
-2.17618e-06
1.08794e-07
-2.20381e-06
1.05607e-07
-2.2309e-06
1.02629e-07
-2.25743e-06
9.97777e-08
-2.28337e-06
9.69777e-08
-2.30865e-06
9.41698e-08
-2.33324e-06
9.13011e-08
-2.35708e-06
8.83324e-08
-2.3801e-06
8.523e-08
-2.40223e-06
8.19729e-08
-2.4234e-06
7.85435e-08
-2.44354e-06
7.49322e-08
-2.46259e-06
7.11321e-08
-2.48047e-06
6.71392e-08
-2.49712e-06
6.29488e-08
-2.51248e-06
5.85705e-08
-2.5265e-06
5.40008e-08
-2.53911e-06
4.92501e-08
-2.5503e-06
4.43321e-08
-2.56002e-06
3.92519e-08
-2.56825e-06
3.40283e-08
-2.57497e-06
2.86753e-08
-2.58017e-06
2.32188e-08
-2.58384e-06
1.76831e-08
-2.58598e-06
1.20931e-08
-2.58653e-06
6.46809e-09
-2.58545e-06
8.12156e-10
-2.58267e-06
-4.88025e-09
-2.57812e-06
-1.06239e-08
-2.57178e-06
-1.6392e-08
-2.5636e-06
-2.21666e-08
-2.55358e-06
-2.79178e-08
-2.5417e-06
-3.36378e-08
-2.52797e-06
-3.93026e-08
-2.51243e-06
-4.49012e-08
-2.49508e-06
-5.04091e-08
-2.47596e-06
-5.58079e-08
-2.45512e-06
-6.10721e-08
-2.43262e-06
-6.61777e-08
-2.40851e-06
-7.11009e-08
-2.38286e-06
-7.58164e-08
-2.35576e-06
-8.03034e-08
-2.3273e-06
-8.45383e-08
-2.29758e-06
-8.85002e-08
-2.26669e-06
-9.2157e-08
-2.23474e-06
-9.5482e-08
-2.2018e-06
-9.84512e-08
-2.168e-06
-1.01069e-07
-2.13347e-06
-1.0334e-07
-2.09834e-06
-1.05296e-07
-2.06272e-06
-1.06942e-07
-2.02672e-06
-1.083e-07
-1.99044e-06
-1.09374e-07
-1.95397e-06
-1.10191e-07
-1.91737e-06
-1.10765e-07
-1.88073e-06
-1.11122e-07
-1.84409e-06
-1.11289e-07
-1.80749e-06
-1.11298e-07
-1.77097e-06
-1.11184e-07
-1.73452e-06
-1.10977e-07
-1.69814e-06
-1.10715e-07
-1.66182e-06
-1.10429e-07
-1.6255e-06
-1.10154e-07
-1.58915e-06
-1.09927e-07
-1.55274e-06
-1.09792e-07
-1.51625e-06
-1.09761e-07
-1.4796e-06
-1.09862e-07
-1.44274e-06
-1.1015e-07
-1.40558e-06
-1.10685e-07
-1.36807e-06
-1.11451e-07
-1.3301e-06
-1.12436e-07
-1.29162e-06
-1.13662e-07
-1.25255e-06
-1.15133e-07
-1.21281e-06
-1.16864e-07
-1.17231e-06
-1.18838e-07
-1.13099e-06
-1.21039e-07
-1.08878e-06
-1.23449e-07
-1.04564e-06
-1.26042e-07
-1.00153e-06
-1.28794e-07
-9.56399e-07
-1.31675e-07
-9.10233e-07
-1.34663e-07
-8.63013e-07
-1.37737e-07
-8.14725e-07
-1.4087e-07
-7.65371e-07
-1.44042e-07
-7.14952e-07
-1.47232e-07
-6.63484e-07
-1.50415e-07
-6.10987e-07
-1.53575e-07
-5.57484e-07
-1.56693e-07
-5.03005e-07
-1.59745e-07
-4.47586e-07
-1.62732e-07
-3.91262e-07
-1.65619e-07
-3.34079e-07
-1.6841e-07
-2.76077e-07
-1.7107e-07
-2.17313e-07
-1.73596e-07
-1.57834e-07
-1.75954e-07
-9.77052e-08
-1.78142e-07
-3.69797e-08
-1.8012e-07
2.42699e-08
-1.81876e-07
8.59568e-08
-1.83313e-07
1.47926e-07
-1.84334e-07
2.09978e-07
-1.84726e-07
2.7184e-07
-1.84108e-07
3.33104e-07
-1.81908e-07
3.93291e-07
-1.77048e-07
4.51435e-07
-1.67161e-07
-1.43146e-07
5.10767e-07
6.25829e-10
8.87331e-09
1.5208e-08
-2.35998e-09
5.37376e-08
-4.10684e-08
1.09241e-07
-8.80263e-08
1.66361e-07
-1.24786e-07
2.14125e-07
-1.44618e-07
2.49058e-07
-1.49639e-07
2.72744e-07
-1.44865e-07
2.88414e-07
-1.34649e-07
2.99053e-07
-1.2175e-07
3.06663e-07
-1.07637e-07
3.12402e-07
-9.30347e-08
3.16792e-07
-7.83044e-08
3.20067e-07
-6.36357e-08
3.22261e-07
-4.91406e-08
3.23406e-07
-3.48956e-08
3.23487e-07
-2.09582e-08
3.22562e-07
-7.37983e-09
3.20671e-07
5.80127e-09
3.17975e-07
1.85674e-08
3.14645e-07
3.08978e-08
3.1093e-07
4.27745e-08
3.06979e-07
5.41471e-08
3.02882e-07
6.48871e-08
2.98471e-07
7.47541e-08
2.93371e-07
8.33511e-08
2.86906e-07
9.0047e-08
2.78355e-07
9.39623e-08
2.67115e-07
9.40406e-08
2.5312e-07
8.92301e-08
2.36864e-07
7.88354e-08
2.19544e-07
6.26628e-08
2.02395e-07
4.15719e-08
1.85508e-07
1.82486e-08
1.65383e-07
-1.36795e-09
1.37636e-07
-1.07428e-08
1.02196e-07
-8.34179e-09
6.08897e-08
3.54817e-09
1.36244e-08
2.32731e-08
-4.1856e-08
5.00265e-08
-1.09281e-07
8.23142e-08
-1.91117e-07
1.18526e-07
-2.88042e-07
1.57804e-07
-3.99453e-07
1.99052e-07
-5.22493e-07
2.40827e-07
-6.52197e-07
2.81932e-07
-7.83325e-07
3.20776e-07
-9.10217e-07
3.5495e-07
-1.02785e-06
3.82309e-07
-1.13342e-06
4.02006e-07
-1.22543e-06
4.14134e-07
-1.30319e-06
4.18916e-07
-1.36733e-06
4.16924e-07
-1.41952e-06
4.09029e-07
-1.46182e-06
3.96239e-07
-1.49646e-06
3.796e-07
-1.52586e-06
3.60219e-07
-1.55213e-06
3.39205e-07
-1.57693e-06
3.17588e-07
-1.60134e-06
2.96188e-07
-1.62599e-06
2.75642e-07
-1.65116e-06
2.5638e-07
-1.67696e-06
2.38645e-07
-1.70334e-06
2.22575e-07
-1.7302e-06
2.0821e-07
-1.75743e-06
1.95516e-07
-1.78489e-06
1.84411e-07
-1.81242e-06
1.74782e-07
-1.83992e-06
1.66458e-07
-1.86732e-06
1.5928e-07
-1.89455e-06
1.53088e-07
-1.92159e-06
1.47717e-07
-1.9484e-06
1.43014e-07
-1.97495e-06
1.38838e-07
-2.00121e-06
1.35057e-07
-2.02716e-06
1.31555e-07
-2.05275e-06
1.28224e-07
-2.07794e-06
1.24973e-07
-2.10268e-06
1.21721e-07
-2.1269e-06
1.184e-07
-2.15055e-06
1.14952e-07
-2.17355e-06
1.11331e-07
-2.19582e-06
1.07501e-07
-2.21729e-06
1.03438e-07
-2.23787e-06
9.91233e-08
-2.25749e-06
9.45488e-08
-2.27607e-06
8.97086e-08
-2.29354e-06
8.46037e-08
-2.30984e-06
7.92391e-08
-2.32489e-06
7.36128e-08
-2.33865e-06
6.77477e-08
-2.35104e-06
6.16477e-08
-2.36205e-06
5.53337e-08
-2.37161e-06
4.88191e-08
-2.37971e-06
4.21261e-08
-2.38631e-06
3.52733e-08
-2.39138e-06
2.8286e-08
-2.39489e-06
2.11865e-08
-2.39681e-06
1.39932e-08
-2.39709e-06
6.72115e-09
-2.39568e-06
-6.26862e-10
-2.39256e-06
-8.04408e-09
-2.38771e-06
-1.55278e-08
-2.38111e-06
-2.30492e-08
-2.37273e-06
-3.05888e-08
-2.36257e-06
-3.81131e-08
-2.35062e-06
-4.56071e-08
-2.33689e-06
-5.3039e-08
-2.32138e-06
-6.03918e-08
-2.30414e-06
-6.76309e-08
-2.28517e-06
-7.47322e-08
-2.26454e-06
-8.16584e-08
-2.24228e-06
-8.83793e-08
-2.21847e-06
-9.48578e-08
-2.19316e-06
-1.01062e-07
-2.16644e-06
-1.06958e-07
-2.13841e-06
-1.12517e-07
-2.10915e-06
-1.17707e-07