/*--------------------------------*- C++ -*----------------------------------*\
  =========                 |
  \\      /  F ield         | OpenFOAM: The Open Source CFD Toolbox
   \\    /   O peration     | Website:  https://openfoam.org
    \\  /    A nd           | Version:  13
     \\/     M anipulation  |
\*---------------------------------------------------------------------------*/
FoamFile
{
    format      ascii;
    class       volVectorField;
    location    "800";
    object      U;
}
// * * * * * * * * * * * * * * * * * * * * * * * * * * * * * * * * * * * * * //

dimensions      [0 1 -1 0 0 0 0];

internalField   nonuniform List<vector> 
12225
(
(9.75826 0.058255 0)
(9.30301 0.106469 0)
(8.82923 0.122042 0)
(8.37232 0.11208 0)
(7.9871 0.0851865 0)
(7.66264 0.0619874 0)
(7.3987 0.0431405 0)
(7.1883 0.0422976 0)
(7.00032 0.0473414 0)
(6.82156 0.0530491 0)
(6.66597 0.0451407 0)
(6.54751 0.0307691 0)
(6.45578 0.0282766 0)
(6.39819 0.0183068 0)
(6.36229 -0.00537732 0)
(6.35032 -0.0247568 0)
(6.35551 -0.033486 0)
(6.37249 -0.0215735 0)
(10.0742 0.0507685 0)
(10.2755 0.0829052 0)
(10.3947 0.0866607 0)
(10.4348 0.0898382 0)
(10.4279 0.0898781 0)
(10.3884 0.0868487 0)
(10.3392 0.0805007 0)
(10.2712 0.0711429 0)
(10.1795 0.0653427 0)
(10.0891 0.061504 0)
(9.99546 0.056844 0)
(9.90464 0.0516423 0)
(9.8104 0.0432974 0)
(9.71077 0.0370341 0)
(9.61812 0.0346862 0)
(9.53409 0.0309268 0)
(9.45447 0.0245369 0)
(9.38306 0.0168385 0)
(10.0281 0.0461896 0)
(10.057 0.0762277 0)
(10.1185 0.0748322 0)
(10.1723 0.0783241 0)
(10.2152 0.0802365 0)
(10.2548 0.0778511 0)
(10.2883 0.0744085 0)
(10.3147 0.0754873 0)
(10.3352 0.0780454 0)
(10.3532 0.0781093 0)
(10.3666 0.0744213 0)
(10.373 0.0693594 0)
(10.3733 0.0650239 0)
(10.367 0.0587481 0)
(10.3551 0.0505932 0)
(10.3367 0.0437924 0)
(10.3144 0.0389845 0)
(10.2897 0.0354068 0)
(10.0094 0.0356786 0)
(10.055 0.0507939 0)
(10.0673 0.0686229 0)
(10.0763 0.0805545 0)
(10.0942 0.079966 0)
(10.1085 0.0761866 0)
(10.1208 0.0709696 0)
(10.1324 0.0696793 0)
(10.1463 0.0702599 0)
(10.1624 0.0690028 0)
(10.1786 0.0652584 0)
(10.1934 0.0605572 0)
(10.207 0.0563261 0)
(10.2193 0.0514654 0)
(10.2289 0.0458066 0)
(10.2356 0.0408262 0)
(10.2402 0.0370655 0)
(10.2441 0.0349682 0)
(10.0016 0.0245626 0)
(10.0376 0.0561227 0)
(10.0492 0.0682421 0)
(10.0692 0.0683761 0)
(10.0849 0.069051 0)
(10.0965 0.0668983 0)
(10.1057 0.0636691 0)
(10.113 0.0626422 0)
(10.121 0.0628552 0)
(10.1304 0.0621469 0)
(10.1396 0.059529 0)
(10.1479 0.0558876 0)
(10.1555 0.0522402 0)
(10.1625 0.0480247 0)
(10.1683 0.0432467 0)
(10.1728 0.0389254 0)
(10.1764 0.0355174 0)
(10.1798 0.0333266 0)
(9.9992 0.0186116 0)
(10.0319 0.0454396 0)
(10.0483 0.0594728 0)
(10.0596 0.0660755 0)
(10.0716 0.0668778 0)
(10.0833 0.0655595 0)
(10.0928 0.0633475 0)
(10.1006 0.062206 0)
(10.1085 0.06163 0)
(10.117 0.0601825 0)
(10.1251 0.0573542 0)
(10.1323 0.0537032 0)
(10.1387 0.04988 0)
(10.1443 0.0456696 0)
(10.1488 0.0411949 0)
(10.1522 0.0371325 0)
(10.1552 0.0338357 0)
(10.1578 0.0314746 0)
(10.0003 0.0143294 0)
(10.0182 0.0407415 0)
(10.0378 0.0512118 0)
(10.0504 0.0571573 0)
(10.0635 0.0582883 0)
(10.0747 0.0580151 0)
(10.0839 0.0570021 0)
(10.0919 0.0562621 0)
(10.0999 0.055729 0)
(10.1079 0.0545438 0)
(10.1156 0.05233 0)
(10.1226 0.049391 0)
(10.1287 0.0461541 0)
(10.1339 0.0425716 0)
(10.1382 0.0388216 0)
(10.1416 0.0353418 0)
(10.1445 0.0323606 0)
(10.1471 0.0300109 0)
(10.0018 0.0113943 0)
(10.0115 0.0366571 0)
(10.0277 0.0504486 0)
(10.0444 0.0569414 0)
(10.0579 0.0577553 0)
(10.0684 0.0574547 0)
(10.0776 0.056446 0)
(10.0859 0.0552919 0)
(10.0936 0.0542027 0)
(10.1012 0.0526411 0)
(10.1085 0.050301 0)
(10.1151 0.0474118 0)
(10.1209 0.0442428 0)
(10.126 0.0408039 0)
(10.1302 0.037277 0)
(10.1337 0.0339723 0)
(10.1367 0.0310385 0)
(10.1394 0.0285878 0)
(10.0018 0.00995816 0)
(10.0078 0.0318887 0)
(10.0226 0.0452261 0)
(10.0387 0.0512974 0)
(10.0514 0.0529098 0)
(10.0617 0.0531921 0)
(10.0709 0.0526182 0)
(10.0792 0.0516399 0)
(10.0869 0.0505003 0)
(10.0943 0.0489308 0)
(10.1013 0.0467624 0)
(10.1078 0.0441414 0)
(10.1135 0.0412361 0)
(10.1185 0.0381124 0)
(10.1229 0.0349386 0)
(10.1265 0.0319213 0)
(10.1298 0.0291594 0)
(10.1327 0.0267405 0)
(10.0013 0.00881047 0)
(10.0064 0.0272269 0)
(10.0192 0.0393271 0)
(10.0335 0.0454739 0)
(10.0452 0.0477719 0)
(10.0553 0.0485949 0)
(10.0643 0.048428 0)
(10.0727 0.0476665 0)
(10.0803 0.046578 0)
(10.0876 0.0450694 0)
(10.0944 0.0430724 0)
(10.1007 0.0406652 0)
(10.1063 0.0379998 0)
(10.1114 0.0351649 0)
(10.1158 0.032304 0)
(10.1196 0.0295434 0)
(10.123 0.0269644 0)
(10.126 0.0246277 0)
(10.0008 0.00774522 0)
(10.0054 0.0232607 0)
(10.0162 0.0342136 0)
(10.0287 0.0403094 0)
(10.0397 0.042963 0)
(10.0494 0.0440771 0)
(10.0583 0.04417 0)
(10.0665 0.0435809 0)
(10.0741 0.0425618 0)
(10.0812 0.0411202 0)
(10.0878 0.0392412 0)
(10.0939 0.0370246 0)
(10.0994 0.0345906 0)
(10.1044 0.0320217 0)
(10.1088 0.0294291 0)
(10.1127 0.0269032 0)
(10.1162 0.0245064 0)
(10.1193 0.0222785 0)
(10.0006 0.00673685 0)
(10.0047 0.0198268 0)
(10.0139 0.0296667 0)
(10.0248 0.0355467 0)
(10.035 0.0383818 0)
(10.0443 0.0397114 0)
(10.053 0.0399971 0)
(10.061 0.0395523 0)
(10.0685 0.0386255 0)
(10.0755 0.0372906 0)
(10.0819 0.0355757 0)
(10.0879 0.0335624 0)
(10.0933 0.0313452 0)
(10.0982 0.0289997 0)
(10.1025 0.026631 0)
(10.1064 0.0243066 0)
(10.1099 0.0220771 0)
(10.1131 0.0199642 0)
(10.0005 0.00582337 0)
(10.0041 0.0169479 0)
(10.0119 0.0255734 0)
(10.0215 0.031074 0)
(10.0309 0.0339156 0)
(10.0397 0.0353437 0)
(10.0481 0.0357771 0)
(10.0559 0.0354811 0)
(10.0632 0.0346778 0)
(10.07 0.0334662 0)
(10.0763 0.031898 0)
(10.0821 0.0300532 0)
(10.0874 0.0280232 0)
(10.0922 0.0258801 0)
(10.0965 0.0237076 0)
(10.1004 0.0215674 0)
(10.1039 0.0194922 0)
(10.1071 0.0175132 0)
(10.0004 0.00487865 0)
(10.0036 0.0140332 0)
(10.01 0.0212597 0)
(10.0183 0.0261722 0)
(10.0268 0.0288661 0)
(10.035 0.0302901 0)
(10.0429 0.0307982 0)
(10.0504 0.0306185 0)
(10.0574 0.0299361 0)
(10.064 0.0288644 0)
(10.0702 0.027469 0)
(10.0758 0.025833 0)
(10.081 0.024025 0)
(10.0856 0.0221231 0)
(10.0899 0.0201798 0)
(10.0937 0.0182527 0)
(10.0972 0.0163627 0)
(10.1004 0.014543 0)
(10.0004 0.00388048 0)
(10.0031 0.0110969 0)
(10.0084 0.016836 0)
(10.0154 0.0209481 0)
(10.023 0.0233096 0)
(10.0305 0.0245971 0)
(10.0378 0.0250918 0)
(10.0449 0.0249752 0)
(10.0516 0.0244004 0)
(10.0579 0.02347 0)
(10.0638 0.0222647 0)
(10.0692 0.0208471 0)
(10.0742 0.0192885 0)
(10.0788 0.0176369 0)
(10.0829 0.0159492 0)
(10.0867 0.0142546 0)
(10.0901 0.0125863 0)
(10.0933 0.0109576 0)
(10.0003 0.00284416 0)
(10.0026 0.00813793 0)
(10.007 0.0123032 0)
(10.013 0.0154197 0)
(10.0197 0.0172596 0)
(10.0265 0.0182668 0)
(10.0332 0.0186422 0)
(10.0398 0.0185205 0)
(10.0461 0.0180178 0)
(10.0521 0.0172205 0)
(10.0577 0.0162002 0)
(10.0629 0.0150105 0)
(10.0677 0.0137047 0)
(10.0721 0.0123217 0)
(10.0761 0.0109011 0)
(10.0798 0.00946827 0)
(10.0832 0.00804362 0)
(10.0863 0.00664895 0)
(10.0002 0.00178198 0)
(10.0022 0.00512333 0)
(10.0059 0.00762789 0)
(10.0111 0.00956316 0)
(10.017 0.0106805 0)
(10.0231 0.0112491 0)
(10.0294 0.0113843 0)
(10.0355 0.011176 0)
(10.0414 0.0106963 0)
(10.0471 0.0100112 0)
(10.0524 0.00916468 0)
(10.0574 0.00820404 0)
(10.062 0.00715471 0)
(10.0663 0.00605373 0)
(10.0702 0.00491569 0)
(10.0738 0.00376894 0)
(10.0771 0.00261568 0)
(10.0802 0.00148763 0)
(10.0002 0.000671746 0)
(10.0019 0.00195177 0)
(10.0052 0.00267828 0)
(10.0098 0.00324776 0)
(10.0152 0.00343926 0)
(10.0209 0.00339466 0)
(10.0267 0.00315648 0)
(10.0325 0.00276368 0)
(10.0382 0.00224848 0)
(10.0436 0.00163891 0)
(10.0487 0.000955948 0)
(10.0535 0.000218019 0)
(10.0579 -0.000561631 0)
(10.0621 -0.00136972 0)
(10.0659 -0.00219704 0)
(10.0694 -0.00303368 0)
(10.0726 -0.0038769 0)
(10.0756 -0.00470382 0)
(10.0002 -0.000571245 0)
(10.0019 -0.00161181 0)
(10.0051 -0.00287061 0)
(10.0095 -0.00386926 0)
(10.0147 -0.00479766 0)
(10.0203 -0.00561553 0)
(10.026 -0.0063493 0)
(10.0317 -0.0070069 0)
(10.0372 -0.00760537 0)
(10.0425 -0.00815483 0)
(10.0476 -0.00867347 0)
(10.0523 -0.00916859 0)
(10.0567 -0.00965306 0)
(10.0607 -0.0101308 0)
(10.0645 -0.0106109 0)
(10.0679 -0.0110936 0)
(10.0711 -0.0115881 0)
(10.074 -0.0120685 0)
(10.0002 -0.00181048 0)
(10.0021 -0.00515808 0)
(10.0057 -0.00833988 0)
(10.0106 -0.0108297 0)
(10.0162 -0.0128165 0)
(10.0221 -0.0143681 0)
(10.028 -0.0155605 0)
(10.034 -0.0164559 0)
(10.0397 -0.0171043 0)
(10.0452 -0.0175716 0)
(10.0503 -0.0178994 0)
(10.0551 -0.018135 0)
(10.0596 -0.0183029 0)
(10.0637 -0.0184392 0)
(10.0674 -0.0185576 0)
(10.0708 -0.0186833 0)
(10.0739 -0.0188244 0)
(10.0768 -0.0189637 0)
(10.0003 -0.00297969 0)
(10.0025 -0.00844155 0)
(10.0068 -0.0132882 0)
(10.0124 -0.0169746 0)
(10.0187 -0.019775 0)
(10.0251 -0.0218724 0)
(10.0316 -0.0233829 0)
(10.0379 -0.0244006 0)
(10.044 -0.0250222 0)
(10.0498 -0.0253518 0)
(10.0552 -0.0254632 0)
(10.0602 -0.025424 0)
(10.0647 -0.0252788 0)
(10.0689 -0.025079 0)
(10.0726 -0.0248555 0)
(10.076 -0.0246443 0)
(10.0791 -0.0244648 0)
(10.0819 -0.0242938 0)
(10.0004 -0.00427031 0)
(10.0033 -0.011953 0)
(10.0085 -0.018371 0)
(10.0152 -0.0230584 0)
(10.0223 -0.0265097 0)
(10.0295 -0.0290287 0)
(10.0366 -0.0307551 0)
(10.0435 -0.0318018 0)
(10.0501 -0.0323245 0)
(10.0562 -0.0324589 0)
(10.0619 -0.0323153 0)
(10.067 -0.0319645 0)
(10.0717 -0.031481 0)
(10.0759 -0.0309179 0)
(10.0797 -0.0303395 0)
(10.083 -0.029777 0)
(10.086 -0.0292798 0)
(10.0887 -0.0288045 0)
(10.0005 -0.00577683 0)
(10.0044 -0.0158943 0)
(10.0111 -0.0237535 0)
(10.0191 -0.0292323 0)
(10.0272 -0.0331974 0)
(10.0352 -0.0360406 0)
(10.043 -0.0378648 0)
(10.0505 -0.038824 0)
(10.0575 -0.0391366 0)
(10.0639 -0.0389934 0)
(10.0697 -0.0385249 0)
(10.075 -0.0378164 0)
(10.0797 -0.0369407 0)
(10.0839 -0.0359752 0)
(10.0876 -0.0349928 0)
(10.0909 -0.0340529 0)
(10.0937 -0.0332052 0)
(10.0962 -0.0324045 0)
(10.0007 -0.00760402 0)
(10.006 -0.0204601 0)
(10.0148 -0.0294558 0)
(10.0243 -0.0354674 0)
(10.0334 -0.0398061 0)
(10.0421 -0.0428558 0)
(10.0505 -0.0446337 0)
(10.0584 -0.0453787 0)
(10.0656 -0.0453979 0)
(10.0722 -0.0449328 0)
(10.0782 -0.0441118 0)
(10.0836 -0.0430276 0)
(10.0884 -0.0417461 0)
(10.0925 -0.0403652 0)
(10.0962 -0.0389776 0)
(10.0993 -0.037666 0)
(10.1019 -0.0364943 0)
(10.1042 -0.0353911 0)
(10.0011 -0.00991015 0)
(10.0085 -0.0258763 0)
(10.02 -0.0354819 0)
(10.031 -0.0416397 0)
(10.0407 -0.0460151 0)
(10.0499 -0.0490321 0)
(10.0588 -0.0506574 0)
(10.0672 -0.0511941 0)
(10.0748 -0.0509636 0)
(10.0816 -0.0502059 0)
(10.0878 -0.0490767 0)
(10.0933 -0.0476351 0)
(10.0982 -0.0459313 0)
(10.1024 -0.044071 0)
(10.106 -0.0421954 0)
(10.1089 -0.0404174 0)
(10.1114 -0.0388458 0)
(10.1134 -0.0373316 0)
(10.0017 -0.0129719 0)
(10.0124 -0.0317353 0)
(10.0271 -0.0416423 0)
(10.0394 -0.047791 0)
(10.0499 -0.0521324 0)
(10.0598 -0.0548763 0)
(10.0693 -0.056171 0)
(10.0782 -0.0563687 0)
(10.0863 -0.0558062 0)
(10.0934 -0.0547258 0)
(10.0997 -0.0533442 0)
(10.1055 -0.0516782 0)
(10.1106 -0.0497101 0)
(10.1149 -0.047543 0)
(10.1185 -0.0453453 0)
(10.1214 -0.0432411 0)
(10.1238 -0.0414036 0)
(10.1258 -0.0395478 0)
(10.0024 -0.017255 0)
(10.019 -0.0374142 0)
(10.0376 -0.0463204 0)
(10.0521 -0.05259 0)
(10.065 -0.0575008 0)
(10.077 -0.0603934 0)
(10.0884 -0.061565 0)
(10.0988 -0.0614377 0)
(10.1082 -0.0603465 0)
(10.1166 -0.0586418 0)
(10.1244 -0.0566977 0)
(10.1317 -0.0544997 0)
(10.1385 -0.0519117 0)
(10.1445 -0.0491213 0)
(10.1498 -0.0463826 0)
(10.1543 -0.043847 0)
(10.1582 -0.0416672 0)
(10.1615 -0.0395113 0)
(10.0042 -0.0257979 0)
(10.0376 -0.0466286 0)
(10.0677 -0.0520859 0)
(10.0932 -0.0570859 0)
(10.1187 -0.0618448 0)
(10.1443 -0.0652634 0)
(10.1698 -0.0671342 0)
(10.1943 -0.0678323 0)
(10.2171 -0.0676106 0)
(10.2381 -0.0668738 0)
(10.2573 -0.0657437 0)
(10.275 -0.0639626 0)
(10.2903 -0.0614373 0)
(10.303 -0.0583519 0)
(10.3129 -0.0550335 0)
(10.3201 -0.0518523 0)
(10.3251 -0.0490612 0)
(10.3277 -0.0465549 0)
(10.0555 -0.0380815 0)
(10.1593 -0.0683526 0)
(10.2482 -0.074677 0)
(10.314 -0.0774767 0)
(10.3573 -0.0798571 0)
(10.3845 -0.0807875 0)
(10.3975 -0.0805723 0)
(10.3988 -0.0793073 0)
(10.3907 -0.0767714 0)
(10.3765 -0.0737483 0)
(10.3565 -0.0710389 0)
(10.3315 -0.0679013 0)
(10.3029 -0.0637232 0)
(10.2715 -0.0588676 0)
(10.2362 -0.0537831 0)
(10.1976 -0.0488296 0)
(10.1563 -0.0442803 0)
(10.1138 -0.0404325 0)
(9.86765 -0.0379294 0)
(9.61249 -0.0752323 0)
(9.32351 -0.0900396 0)
(9.02477 -0.093433 0)
(8.74077 -0.091486 0)
(8.47912 -0.0870406 0)
(8.23824 -0.081179 0)
(8.01773 -0.0743765 0)
(7.819 -0.0670373 0)
(7.64044 -0.0594102 0)
(7.4815 -0.0519952 0)
(7.34121 -0.0449326 0)
(7.21939 -0.0379611 0)
(7.11569 -0.0305803 0)
(7.03158 -0.0229045 0)
(6.96533 -0.0157088 0)
(6.91399 -0.00935862 0)
(6.87676 -0.00411709 0)
(-0.00235515 0.00630336 -8.04921e-19)
(-0.0108108 0.0105601 9.68296e-19)
(-0.0222503 0.0114207 -6.8732e-19)
(-0.0336714 0.00964131 -2.16221e-19)
(-0.0405216 0.00456049 3.46999e-19)
(-0.0363076 -0.00403799 -8.65273e-20)
(-0.0200777 -0.0156308 -9.02841e-20)
(0.0057594 -0.0270569 4.03836e-19)
(0.0383188 -0.0350202 -1.72738e-19)
(0.0750986 -0.0387156 4.33777e-20)
(0.113286 -0.0387749 1.45137e-20)
(0.150094 -0.0361552 -1.60015e-19)
(0.183418 -0.0317255 2.26553e-19)
(0.211975 -0.026129 2.33679e-19)
(0.235092 -0.0198112 2.0248e-20)
(0.25244 -0.0130198 8.58182e-20)
(0.263765 -0.00591688 3.39332e-20)
(0.269156 0.0015752 5.92985e-20)
(0.267739 0.00940673 8.8351e-20)
(0.259425 0.0172177 9.58486e-21)
(0.244729 0.0243785 -3.27721e-20)
(0.2242 0.0301686 2.79607e-19)
(0.198542 0.0338636 -3.75568e-20)
(0.16881 0.0348642 3.29189e-19)
(0.136518 0.0327301 -7.60379e-20)
(0.103619 0.0273992 3.32102e-19)
(0.0723446 0.0193838 1.98234e-19)
(0.0448688 0.0100685 1.57259e-19)
(0.0228209 0.00163915 -7.77789e-19)
(0.00684064 -0.00390003 -1.75591e-19)
(-0.00343435 -0.00635999 -1.27713e-18)
(-0.00916854 -0.00719159 7.26186e-19)
(-0.010848 -0.00780717 5.21441e-19)
(-0.00748924 -0.00946798 -6.50802e-19)
(0.00113807 -0.0129988 -9.54995e-19)
(0.0168854 -0.018655 -5.00097e-20)
(0.0396406 -0.0245659 2.03598e-19)
(0.0675116 -0.0284974 3.76631e-19)
(0.0963923 -0.0286534 2.11518e-19)
(0.122005 -0.0249767 4.22291e-19)
(0.141153 -0.0186472 1.53093e-19)
(0.152113 -0.0111615 3.88915e-20)
(0.154805 -0.00383657 -5.19051e-19)
(0.149946 0.00178189 -1.07975e-19)
(0.141012 0.0046632 2.30735e-19)
(0.132301 0.00427753 1.23953e-20)
(0.127772 0.00014265 5.94388e-19)
(0.127352 -0.00698663 1.92703e-19)
(0.125015 -0.0155328 7.77023e-20)
(0.114042 -0.0212948 -6.52942e-19)
(0.0894485 -0.0184363 5.77268e-19)
(0.0489378 -0.00161572 6.3524e-20)
(-0.0292016 0.0213075 7.35432e-19)
(-0.124682 0.0401786 3.43178e-19)
(-0.226265 0.0600284 8.94034e-20)
(-0.338402 0.0783399 1.59013e-19)
(-0.459264 0.0906266 1.78304e-19)
(-0.585356 0.097615 -1.71482e-19)
(-0.712298 0.0992693 6.1907e-20)
(-0.837925 0.0973414 6.39412e-20)
(-0.958797 0.0946322 -1.41103e-19)
(-1.07305 0.0906431 -8.65319e-20)
(-1.18029 0.0853512 6.38906e-20)
(-1.27963 0.0798841 7.30846e-20)
(-1.37123 0.0745822 1.98436e-20)
(-1.45551 0.0657948 -7.48893e-20)
(-1.53235 0.0588931 8.05418e-21)
(-1.60331 0.0549983 3.74205e-21)
(-1.66933 0.0502601 1.83873e-20)
(-1.73075 0.0466609 8.8575e-20)
(-1.78838 0.0435231 -4.35686e-21)
(-1.84278 0.0408985 -6.25473e-20)
(-1.89444 0.0387139 6.66919e-20)
(-1.94379 0.0368683 2.40729e-20)
(-1.9912 0.0353163 -3.8609e-20)
(-2.03692 0.033983 3.183e-20)
(-2.08119 0.0328181 -4.86258e-21)
(-2.12417 0.0317759 6.05197e-20)
(-2.16599 0.0308136 2.77119e-20)
(-2.20672 0.029909 -4.07056e-20)
(-2.2464 0.029027 -1.15739e-20)
(-2.28503 0.028158 2.28103e-21)
(-2.32262 0.0272737 4.51678e-20)
(-2.35914 0.026374 5.59229e-20)
(-2.39452 0.0254372 4.91256e-20)
(-2.42873 0.0244632 -4.9779e-20)
(-2.4617 0.0234393 1.05779e-19)
(-2.49337 0.0223616 -4.19688e-21)
(-2.52367 0.0212195 7.57466e-20)
(-2.55251 0.0200157 -1.07303e-19)
(-2.57979 0.0187321 -5.75711e-20)
(-2.60544 0.0173776 4.84237e-20)
(-2.62938 0.0159387 7.04648e-20)
(-2.65152 0.0144241 -1.0699e-20)
(-2.67178 0.0128303 -6.63479e-20)
(-2.69006 0.0111798 -6.5961e-20)
(-2.70628 0.00948699 6.77512e-20)
(-2.72031 0.00779041 -3.65546e-20)
(-2.73203 0.0061153 -8.73436e-20)
(-2.74132 0.00448048 -3.81343e-20)
(-2.74806 0.0029198 9.43219e-20)
(-2.75224 0.00149055 4.74857e-20)
(-2.75411 0.000212552 7.11392e-20)
(-2.75405 -0.000983508 -4.35967e-20)
(-2.75206 -0.00214745 1.39182e-20)
(-2.74816 -0.00330816 4.84526e-21)
(-2.74235 -0.00445298 -8.90033e-21)
(-2.73464 -0.00559865 -1.9314e-20)
(-2.72505 -0.00672816 -2.904e-20)
(-2.71361 -0.00785138 -4.72772e-20)
(-2.70034 -0.00895077 -6.47806e-20)
(-2.68529 -0.0100307 3.42751e-20)
(-2.6685 -0.0110761 -4.77763e-20)
(-2.65004 -0.0120857 -4.66306e-20)
(-2.62995 -0.0130487 8.19205e-20)
(-2.60831 -0.0139581 -4.82032e-21)
(-2.58519 -0.0148073 -5.20681e-20)
(-2.56069 -0.0155866 -5.39358e-20)
(-2.53488 -0.0162929 4.94133e-20)
(-2.50787 -0.0169152 3.66403e-21)
(-2.47973 -0.0174537 1.45619e-20)
(-2.45057 -0.0178986 -9.42197e-21)
(-2.4205 -0.0182649 -2.71618e-20)
(-2.38965 -0.0185332 2.26078e-20)
(-2.35814 -0.0187254 -1.9598e-20)
(-2.32611 -0.0188014 1.73509e-20)
(-2.29365 -0.0188209 2.29336e-20)
(-2.26085 -0.018767 -7.91025e-21)
(-2.22779 -0.0186593 2.11851e-20)
(-2.19455 -0.018464 -1.78807e-20)
(-2.1612 -0.0182125 4.0961e-20)
(-2.12781 -0.0178871 -3.33602e-21)
(-2.09441 -0.0175101 -3.72537e-20)
(-2.06105 -0.0170412 7.87644e-21)
(-2.02776 -0.0165007 -1.59706e-21)
(-1.99458 -0.0158636 6.13774e-21)
(-1.96152 -0.0150957 4.10338e-21)
(-1.92861 -0.0143099 7.09436e-22)
(-1.89573 -0.0138657 2.25737e-21)
(-1.8627 -0.0136264 -9.49757e-22)
(-1.82953 -0.0132871 2.39426e-20)
(-1.79625 -0.01295 2.53212e-20)
(-1.7628 -0.0126993 -1.51478e-20)
(-1.7291 -0.0125056 -1.75402e-20)
(-1.69503 -0.0123389 -3.29723e-20)
(-1.66064 -0.0122133 -4.97951e-20)
(-1.62576 -0.0122219 -3.85689e-20)
(-1.59033 -0.0122605 -6.37264e-20)
(-1.5543 -0.012329 3.20261e-20)
(-1.51758 -0.0124993 3.02084e-20)
(-1.48006 -0.0127314 5.27382e-20)
(-1.44169 -0.0130292 3.95991e-20)
(-1.40238 -0.0133863 1.13642e-19)
(-1.36209 -0.013798 7.76714e-21)
(-1.32076 -0.014263 5.02834e-21)
(-1.27835 -0.0147781 -8.85488e-20)
(-1.23482 -0.0153368 1.41692e-19)
(-1.19014 -0.0159387 -8.51691e-20)
(-1.14428 -0.0165753 1.19873e-20)
(-1.09723 -0.0172432 4.3923e-20)
(-1.04896 -0.0179501 1.62404e-20)
(-0.999489 -0.0186651 4.19285e-20)
(-0.948795 -0.0194034 2.01257e-19)
(-0.896911 -0.0201568 1.00605e-19)
(-0.843825 -0.0209203 4.8179e-20)
(-0.789566 -0.0216952 6.92148e-20)
(-0.734152 -0.0224742 1.9829e-19)
(-0.677617 -0.0232568 -8.80701e-21)
(-0.619996 -0.024038 2.35471e-19)
(-0.561336 -0.0248169 3.45047e-19)
(-0.501692 -0.0255875 3.41018e-19)
(-0.44113 -0.0263486 -1.26167e-20)
(-0.379739 -0.0270861 3.3208e-20)
(-0.317658 -0.0277789 -7.98697e-20)
(-0.255076 -0.0283991 -1.01941e-18)
(-0.192292 -0.0288511 5.13923e-19)
(-0.129918 -0.0290229 3.85905e-19)
(-0.0696432 -0.0284876 -8.02353e-19)
(-0.00400748 -0.0262594 -7.97436e-19)
(0.0187075 -0.0148341 1.19363e-18)
(-0.000442071 0.0171144 2.27031e-18)
(-0.00508619 0.0298893 -1.91168e-18)
(-0.00980579 0.0296318 -8.42226e-19)
(-0.00790604 0.0190489 2.54232e-18)
(0.00781351 -0.00342527 4.55323e-19)
(0.0357512 -0.0374723 1.8225e-19)
(0.0718065 -0.0724558 -1.20792e-19)
(0.112043 -0.0995566 -4.60014e-19)
(0.152866 -0.115079 -2.64927e-20)
(0.191619 -0.119485 -3.41881e-19)
(0.226774 -0.115307 1.83463e-20)
(0.257598 -0.105373 -4.76226e-21)
(0.28385 -0.0920049 1.0722e-19)
(0.305598 -0.0768091 1.53311e-20)
(0.323039 -0.060818 -3.36017e-20)
(0.336461 -0.0445771 -2.82062e-19)
(0.34617 -0.0283566 -6.09579e-20)
(0.352312 -0.0122387 2.67765e-19)
(0.355674 0.00381066 -3.12232e-19)
(0.356232 0.0197203 8.74526e-20)
(0.353619 0.0352292 7.97052e-21)
(0.347341 0.0499158 1.74818e-19)
(0.33686 0.0631528 2.07019e-19)
(0.321682 0.0740993 1.81834e-19)
(0.30151 0.0817332 2.46543e-19)
(0.276373 0.0850335 -1.48531e-19)
(0.246851 0.083181 4.02351e-20)
(0.214165 0.0759881 5.62532e-20)
(0.180163 0.064091 -2.46392e-19)
(0.147217 0.0489298 -2.02122e-19)
(0.11807 0.0321315 -3.93953e-19)
(0.0955919 0.0149503 -1.47602e-19)
(0.0822226 -0.00217612 -1.299e-18)
(0.079184 -0.0190637 5.46936e-19)
(0.0864579 -0.0360098 -6.94028e-19)
(0.101945 -0.0534633 6.83573e-19)
(0.121684 -0.0674196 -5.37365e-19)
(0.14058 -0.0718696 1.24741e-19)
(0.154623 -0.0653459 2.79439e-19)
(0.162327 -0.0510273 -2.07194e-19)
(0.163673 -0.033237 1.77007e-19)
(0.159301 -0.0154624 -7.82365e-20)
(0.150136 -0.000632723 -3.28337e-19)
(0.138068 0.00901989 -1.07252e-18)
(0.121944 0.0125948 -8.67954e-19)
(0.0976971 0.0115353 1.16777e-20)
(0.0573093 0.0109597 -1.47731e-18)
(-0.00948368 0.0251383 -4.02245e-19)
(-0.105547 0.0593915 9.65878e-19)
(-0.220422 0.0987044 9.70145e-19)
(-0.346326 0.138522 1.6495e-19)
(-0.477475 0.176309 -5.46827e-20)
(-0.613035 0.207971 -4.61748e-20)
(-0.749198 0.230927 -1.26564e-19)
(-0.883288 0.245987 -8.56508e-20)
(-1.01362 0.254151 -2.03239e-19)
(-1.13713 0.255464 -2.21616e-19)
(-1.25152 0.250554 -4.71645e-20)
(-1.35455 0.240952 2.98563e-20)
(-1.4461 0.227676 -1.44568e-19)
(-1.52753 0.211862 1.06771e-19)
(-1.59975 0.194908 -4.48478e-20)
(-1.66401 0.177948 -1.7469e-19)
(-1.72166 0.161786 1.32479e-20)
(-1.7738 0.147051 1.22194e-19)
(-1.82207 0.133891 -4.66555e-20)
(-1.86661 0.122255 5.10254e-21)
(-1.90834 0.112356 -1.05768e-19)
(-1.94755 0.103838 3.61164e-20)
(-1.98495 0.0966 -6.10192e-20)
(-2.02083 0.0904616 1.08244e-21)
(-2.05544 0.0852457 -7.42923e-20)
(-2.08898 0.0807954 2.39194e-21)
(-2.12158 0.0769658 -4.34424e-20)
(-2.15332 0.0736275 5.71936e-20)
(-2.18427 0.0706741 -9.81386e-20)
(-2.21444 0.0680053 1.27122e-20)
(-2.24386 0.0655488 -9.81893e-20)
(-2.27253 0.0632298 3.82893e-21)
(-2.30041 0.0610075 7.69212e-20)
(-2.32749 0.0588266 1.5054e-20)
(-2.35373 0.0566678 -4.48808e-20)
(-2.37909 0.0544938 -6.70723e-20)
(-2.40352 0.052302 3.83287e-20)
(-2.42697 0.0500686 1.08127e-19)
(-2.44938 0.0477944 -3.41967e-20)
(-2.47067 0.0454654 -1.25033e-21)
(-2.49081 0.0430776 -2.88852e-21)
(-2.50973 0.040626 6.94252e-20)
(-2.52737 0.0381081 2.44353e-19)
(-2.54368 0.035525 5.33527e-20)
(-2.5586 0.0328799 1.00188e-19)
(-2.57209 0.030165 -2.18026e-19)
(-2.58412 0.0273849 -1.05142e-19)
(-2.59468 0.024529 6.86551e-20)
(-2.60372 0.0216056 1.40061e-19)
(-2.61128 0.0186118 -7.72493e-20)
(-2.61737 0.0155684 -3.15025e-20)
(-2.62207 0.012494 -5.44652e-20)
(-2.62547 0.00942625 7.94362e-20)
(-2.6277 0.00641934 -1.10721e-19)
(-2.6288 0.00354595 -8.34828e-20)
(-2.62857 0.000837572 -5.39725e-20)
(-2.62661 -0.00175394 1.78782e-19)
(-2.62287 -0.0042668 -2.02221e-20)
(-2.61731 -0.00672741 1.26659e-20)
(-2.60994 -0.00912288 6.61259e-20)
(-2.60073 -0.011465 1.42704e-19)
(-2.58972 -0.0137351 -1.95234e-20)
(-2.57691 -0.0159409 -5.49172e-20)
(-2.56233 -0.0180637 4.30915e-21)
(-2.54603 -0.0201071 -1.01402e-19)
(-2.52803 -0.0220552 1.09765e-19)
(-2.5084 -0.023909 4.09892e-20)
(-2.48719 -0.0256574 3.23e-20)
(-2.46447 -0.0272974 7.95521e-20)
(-2.44031 -0.0288202 9.48798e-20)
(-2.41482 -0.0302192 -4.93455e-20)
(-2.38808 -0.031483 3.17638e-20)
(-2.36017 -0.0325984 4.52456e-20)
(-2.33117 -0.0335619 5.3947e-20)
(-2.30118 -0.0343695 -6.11742e-21)
(-2.27032 -0.035046 -2.3911e-21)
(-2.23872 -0.0355844 -4.13105e-20)
(-2.2065 -0.0360197 -3.73376e-20)
(-2.17376 -0.0363273 -3.8747e-20)
(-2.14061 -0.0365454 3.68275e-20)
(-2.10713 -0.0366444 -5.02123e-21)
(-2.07342 -0.0366676 -1.98765e-20)
(-2.03953 -0.0365885 -3.97932e-21)
(-2.00555 -0.0364531 -2.02271e-20)
(-1.97151 -0.0362402 -2.40378e-20)
(-1.93747 -0.0359943 -1.09366e-20)
(-1.90345 -0.0356992 4.82686e-21)
(-1.86946 -0.0353917 2.93545e-21)
(-1.83549 -0.0350713 2.30135e-21)
(-1.8015 -0.0347736 -8.10885e-22)
(-1.76741 -0.0344967 -3.03682e-21)
(-1.7332 -0.0342331 4.2772e-23)
(-1.69889 -0.0339563 1.25822e-20)
(-1.66446 -0.0337058 -1.01009e-20)
(-1.62981 -0.0335098 1.51295e-20)
(-1.59488 -0.0334227 7.37722e-21)
(-1.55963 -0.0333896 -1.58748e-20)
(-1.52394 -0.0334238 -5.39702e-21)
(-1.48778 -0.033528 -2.78549e-20)
(-1.45101 -0.033718 -1.77426e-20)
(-1.41361 -0.0339917 3.87072e-20)
(-1.37546 -0.0343504 6.38787e-20)
(-1.33649 -0.0347707 -8.88091e-20)
(-1.29662 -0.0352594 2.76667e-20)
(-1.25579 -0.0358005 5.5775e-21)
(-1.21393 -0.0363968 -1.56381e-19)
(-1.17099 -0.0370278 3.91027e-21)
(-1.12693 -0.0376961 2.49584e-21)
(-1.08171 -0.0383876 -5.30331e-20)
(-1.0353 -0.0390998 6.83172e-20)
(-0.987679 -0.0398229 9.78485e-20)
(-0.938835 -0.0405576 1.03866e-19)
(-0.888749 -0.041287 9.42114e-20)
(-0.837427 -0.0420197 -1.43176e-19)
(-0.784882 -0.0427388 1.86962e-20)
(-0.731105 -0.0434453 -4.12994e-20)
(-0.676133 -0.0441377 1.14462e-19)
(-0.619969 -0.0448049 -3.58519e-20)
(-0.562648 -0.0454506 1.49828e-19)
(-0.504198 -0.0460635 -1.54257e-19)
(-0.444655 -0.0466441 -2.47522e-19)
(-0.384062 -0.0471825 -3.91492e-19)
(-0.322466 -0.047681 -1.9162e-19)
(-0.259927 -0.048126 -9.00033e-20)
(-0.196508 -0.0485153 4.47928e-20)
(-0.132291 -0.0488234 2.83793e-20)
(-0.0674139 -0.0490275 -3.43693e-19)
(-0.00195092 -0.0490611 -3.28399e-19)
(0.0638512 -0.0487859 4.57664e-19)
(0.129665 -0.0480602 5.60245e-19)
(0.193508 -0.0464942 5.26403e-19)
(0.260395 -0.0430016 2.65497e-19)
(0.303918 -0.0313904 -5.71235e-19)
(2.80163e-05 0.0196506 2.92705e-19)
(0.000572505 0.032339 3.01271e-18)
(0.00752396 0.0217409 3.04074e-18)
(0.0286921 -0.0136143 -1.9349e-18)
(0.0661838 -0.0686699 3.38608e-19)
(0.112186 -0.124501 -1.5957e-19)
(0.157913 -0.165866 -6.61573e-20)
(0.19821 -0.187539 5.05123e-19)
(0.231394 -0.191534 3.9401e-19)
(0.25782 -0.18275 3.25034e-19)
(0.278621 -0.166106 1.45375e-19)
(0.295002 -0.145345 1.3712e-19)
(0.307932 -0.122866 -4.35177e-19)
(0.318075 -0.100036 -2.69196e-19)
(0.325853 -0.0775652 9.64949e-20)
(0.331558 -0.0557685 -2.08744e-19)
(0.335384 -0.0347508 2.04447e-19)
(0.337483 -0.0145501 3.06653e-20)
(0.338046 0.00488232 3.05511e-19)
(0.337379 0.0237018 2.66992e-19)
(0.335692 0.0420272 -2.53779e-19)
(0.333148 0.0598458 -6.87152e-19)
(0.329721 0.0769048 -1.24641e-19)
(0.325103 0.0926488 -8.1001e-19)
(0.318709 0.106195 1.83211e-19)
(0.309734 0.116367 2.90844e-19)
(0.297354 0.121832 -1.1925e-19)
(0.281012 0.121372 4.25446e-19)
(0.260842 0.114221 2.41194e-19)
(0.237886 0.100357 5.73313e-19)
(0.214215 0.0805277 -3.14271e-19)
(0.192486 0.056055 -2.23654e-19)
(0.175386 0.0282801 1.27983e-19)
(0.16451 -0.00152013 -1.7346e-19)
(0.159486 -0.0330229 -2.40716e-19)
(0.157433 -0.0616722 -1.38387e-20)
(0.153214 -0.0769205 -6.42507e-19)
(0.143488 -0.074139 1.9997e-19)
(0.128857 -0.0579417 -4.62271e-19)
(0.109849 -0.0349165 -1.55827e-19)
(0.0865916 -0.0103694 1.41256e-19)
(0.058287 0.0137159 -1.57315e-19)
(0.0232308 0.036642 -3.79197e-19)
(-0.0244056 0.0570828 1.12043e-18)
(-0.093498 0.0807952 1.02174e-18)
(-0.183148 0.114939 -5.22797e-19)
(-0.291403 0.157569 1.82004e-19)
(-0.414382 0.205041 -1.67417e-19)
(-0.545001 0.253822 -2.42134e-19)
(-0.676915 0.298574 -9.96777e-20)
(-0.805956 0.336882 -9.33587e-20)
(-0.928308 0.367683 1.57608e-19)
(-1.04076 0.389213 2.44186e-20)
(-1.14197 0.400485 1.03801e-19)
(-1.23189 0.40238 1.12678e-20)
(-1.31008 0.395863 1.23786e-20)
(-1.37703 0.381851 5.11346e-20)
(-1.43424 0.361914 7.74966e-20)
(-1.48368 0.337953 -1.28096e-20)
(-1.52737 0.312046 2.42351e-19)
(-1.56688 0.285929 1.72531e-19)
(-1.60357 0.260757 3.93993e-20)
(-1.63825 0.23727 8.72635e-20)
(-1.67158 0.215961 -2.01898e-19)
(-1.70396 0.19704 2.9832e-20)
(-1.7357 0.18042 1.15474e-19)
(-1.76699 0.166103 -1.84488e-19)
(-1.79782 0.154 -8.3277e-20)
(-1.82815 0.143672 5.56026e-20)
(-1.85804 0.134897 4.32583e-20)
(-1.88751 0.127428 -9.13131e-20)
(-1.91655 0.12103 1.5686e-19)
(-1.94519 0.115498 1.82443e-20)
(-1.97344 0.110656 5.6046e-20)
(-2.00128 0.10635 -1.83116e-19)
(-2.02871 0.10245 1.76601e-19)
(-2.05571 0.0988445 3.69543e-20)
(-2.08227 0.0954424 -7.59761e-20)
(-2.10834 0.0921645 -1.38064e-19)
(-2.1339 0.0889517 -6.84196e-20)
(-2.15888 0.0857495 1.0952e-20)
(-2.18325 0.082523 2.9522e-20)
(-2.20694 0.0792397 -1.38855e-20)
(-2.22989 0.0758844 -1.04198e-19)
(-2.25204 0.0724412 -2.87931e-20)
(-2.2733 0.0689051 -3.16296e-20)
(-2.29363 0.0652686 1.89669e-20)
(-2.31294 0.0615289 -6.61376e-20)
(-2.33118 0.0576854 -9.53441e-20)
(-2.34829 0.0537404 -1.17841e-19)
(-2.3642 0.0497019 3.814e-20)
(-2.37887 0.045576 -1.40133e-19)
(-2.39225 0.0413754 1.36875e-19)
(-2.4043 0.0371077 1.19655e-20)
(-2.41501 0.032788 -3.25778e-20)
(-2.42434 0.0284312 -6.09495e-20)
(-2.43227 0.0240581 2.1147e-20)
(-2.43881 0.0196905 1.0235e-19)
(-2.44392 0.0153485 8.4664e-20)
(-2.44758 0.0110509 3.766e-20)
(-2.44976 0.00680473 4.54176e-20)
(-2.45039 0.00260307 2.2731e-20)
(-2.44939 -0.00156781 2.10826e-20)
(-2.44671 -0.0056881 -2.92704e-19)
(-2.44231 -0.00974222 5.77106e-20)
(-2.43616 -0.0137171 5.23779e-20)
(-2.42826 -0.0176075 -1.02066e-19)
(-2.41859 -0.021403 8.69658e-20)
(-2.40717 -0.0250949 -2.89864e-20)
(-2.394 -0.0286721 1.25759e-19)
(-2.37912 -0.0321216 9.15621e-20)
(-2.36256 -0.0354316 6.43984e-20)
(-2.34435 -0.0385874 -4.23782e-20)
(-2.32454 -0.0415786 5.12002e-20)
(-2.30319 -0.0443911 3.29816e-20)
(-2.28038 -0.0470163 -3.93492e-20)
(-2.25618 -0.0494416 -5.87985e-20)
(-2.23068 -0.0516582 1.82849e-19)
(-2.20398 -0.0536476 2.72295e-20)
(-2.17614 -0.0553962 -6.15182e-20)
(-2.14727 -0.056893 -1.53065e-19)
(-2.11745 -0.058144 -1.92081e-20)
(-2.08681 -0.0591623 -1.33077e-21)
(-2.05547 -0.0599675 -5.14679e-20)
(-2.02354 -0.0605738 5.06923e-21)
(-1.99114 -0.0609894 3.87175e-20)
(-1.95836 -0.0612298 -1.03312e-19)
(-1.92529 -0.0613036 3.31936e-20)
(-1.892 -0.0612307 1.25412e-20)
(-1.85857 -0.0610201 4.60565e-20)
(-1.82505 -0.0606979 -1.18041e-20)
(-1.79149 -0.0602762 2.28097e-20)
(-1.75791 -0.0597853 5.06469e-20)
(-1.72435 -0.0592357 4.50927e-21)
(-1.69079 -0.0586542 -1.34693e-20)
(-1.65723 -0.0580533 2.60308e-21)
(-1.62362 -0.0574558 1.03239e-21)
(-1.58993 -0.0568811 9.98529e-22)
(-1.55611 -0.0563682 4.37007e-21)
(-1.52215 -0.0559154 -7.07493e-22)
(-1.48799 -0.0555321 4.58157e-21)
(-1.45356 -0.0552443 -3.96158e-20)
(-1.41882 -0.0550967 -5.38339e-21)
(-1.38364 -0.0550721 -5.91409e-21)
(-1.34799 -0.055161 -1.12097e-20)
(-1.31176 -0.055366 5.03626e-20)
(-1.27488 -0.0556999 -1.48214e-20)
(-1.23727 -0.0561626 -3.1058e-20)