/*--------------------------------*- C++ -*----------------------------------*\
  =========                 |
  \\      /  F ield         | OpenFOAM: The Open Source CFD Toolbox
   \\    /   O peration     | Website:  https://openfoam.org
    \\  /    A nd           | Version:  13
     \\/     M anipulation  |
\*---------------------------------------------------------------------------*/
FoamFile
{
    format      ascii;
    class       volVectorField;
    location    "2000";
    object      C;
}
// * * * * * * * * * * * * * * * * * * * * * * * * * * * * * * * * * * * * * //

dimensions      [0 1 0 0 0 0 0];

internalField   nonuniform List<vector> 
12225
(
(-0.0198086 0.00015942 -3.0441e-20)
(-0.0182574 0.00015942 -1.36192e-20)
(-0.0167681 0.00015942 2.76292e-20)
(-0.0153384 0.00015942 -2.87834e-21)
(-0.0139658 0.00015942 -1.28714e-20)
(-0.012648 0.00015942 2.4247e-21)
(-0.0113829 0.00015942 -4.50541e-21)
(-0.0101683 0.00015942 -1.36792e-21)
(-0.00900222 0.00015942 2.46956e-20)
(-0.00788276 0.00015942 2.35278e-20)
(-0.00680802 0.00015942 -3.69648e-21)
(-0.00577621 0.00015942 -1.15229e-20)
(-0.00478564 0.00015942 -1.10677e-20)
(-0.00383464 0.00015942 -1.14048e-20)
(-0.00292163 0.00015942 1.41138e-21)
(-0.0020451 0.00015942 -1.40397e-21)
(-0.0012036 0.00015942 -1.01027e-20)
(-0.000395709 0.00015942 -2.48511e-21)
(-0.0198086 0.000489703 -3.72555e-20)
(-0.0182574 0.000489703 -2.8142e-20)
(-0.0167681 0.000489703 1.94861e-20)
(-0.0153384 0.000489703 -3.05603e-21)
(-0.0139658 0.000489703 -3.81609e-20)
(-0.012648 0.000489703 3.39123e-21)
(-0.0113829 0.000489703 -3.33184e-20)
(-0.0101683 0.000489703 4.99731e-21)
(-0.00900222 0.000489703 -2.49639e-20)
(-0.00788276 0.000489703 1.28868e-20)
(-0.00680802 0.000489703 6.31324e-21)
(-0.00577621 0.000489703 -1.37609e-20)
(-0.00478564 0.000489703 1.18069e-20)
(-0.00383464 0.000489703 4.17953e-23)
(-0.00292163 0.000489703 3.09207e-20)
(-0.0020451 0.000489703 -1.15056e-21)
(-0.0012036 0.000489703 1.21751e-20)
(-0.000395709 0.000489703 -2.30973e-20)
(-0.0198086 0.000843691 1.33887e-21)
(-0.0182574 0.000843691 1.00166e-20)
(-0.0167681 0.000843691 1.20605e-20)
(-0.0153384 0.000843691 -2.11314e-20)
(-0.0139658 0.000843691 3.77738e-20)
(-0.012648 0.000843691 5.91956e-20)
(-0.0113829 0.000843691 -1.04494e-20)
(-0.0101683 0.000843691 2.2604e-21)
(-0.00900222 0.000843691 9.50948e-22)
(-0.00788276 0.000843691 -2.23508e-21)
(-0.00680802 0.000843691 -2.19619e-20)
(-0.00577621 0.000843691 3.69461e-23)
(-0.00478564 0.000843691 8.06036e-21)
(-0.00383464 0.000843691 3.29844e-20)
(-0.00292163 0.000843691 -7.65503e-22)
(-0.0020451 0.000843691 6.00189e-21)
(-0.0012036 0.000843691 8.86564e-21)
(-0.000395709 0.000843691 3.61297e-21)
(-0.0198086 0.00122309 -1.06023e-21)
(-0.0182574 0.00122309 -1.07373e-21)
(-0.0167681 0.00122309 1.59859e-21)
(-0.0153384 0.00122309 -3.51376e-21)
(-0.0139658 0.00122309 3.31442e-22)
(-0.012648 0.00122309 -3.57279e-21)
(-0.0113829 0.00122309 -1.0039e-20)
(-0.0101683 0.00122309 2.56e-21)
(-0.00900222 0.00122309 3.05641e-20)
(-0.00788276 0.00122309 -5.14488e-21)
(-0.00680802 0.00122309 -7.18892e-20)
(-0.00577621 0.00122309 2.47496e-20)
(-0.00478564 0.00122309 4.51998e-21)
(-0.00383464 0.00122309 -1.89168e-20)
(-0.00292163 0.00122309 -1.58482e-21)
(-0.0020451 0.00122309 -1.27634e-20)
(-0.0012036 0.00122309 2.72367e-21)
(-0.000395709 0.00122309 -8.11317e-21)
(-0.0198086 0.00162971 -4.95862e-21)
(-0.0182574 0.00162971 6.57311e-22)
(-0.0167681 0.00162971 5.20357e-21)
(-0.0153384 0.00162971 4.94306e-22)
(-0.0139658 0.00162971 6.46892e-21)
(-0.012648 0.00162971 -4.56042e-21)
(-0.0113829 0.00162971 1.12424e-20)
(-0.0101683 0.00162971 -3.17094e-20)
(-0.00900222 0.00162971 9.51497e-21)
(-0.00788276 0.00162971 3.49398e-20)
(-0.00680802 0.00162971 3.21724e-20)
(-0.00577621 0.00162971 3.41852e-20)
(-0.00478564 0.00162971 -1.81816e-20)
(-0.00383464 0.00162971 1.37528e-20)
(-0.00292163 0.00162971 4.4045e-21)
(-0.0020451 0.00162971 2.9895e-21)
(-0.0012036 0.00162971 5.60099e-22)
(-0.000395709 0.00162971 -5.03334e-21)
(-0.0198086 0.00206552 -4.17517e-21)
(-0.0182574 0.00206552 7.16411e-21)
(-0.0167681 0.00206552 1.45281e-20)
(-0.0153384 0.00206552 -6.83738e-21)
(-0.0139658 0.00206552 -1.14056e-20)
(-0.012648 0.00206552 -1.14375e-20)
(-0.0113829 0.00206552 -1.0335e-22)
(-0.0101683 0.00206552 4.66563e-20)
(-0.00900222 0.00206552 -1.35225e-20)
(-0.00788276 0.00206552 -3.14014e-20)
(-0.00680802 0.00206552 -3.23253e-20)
(-0.00577621 0.00206552 -2.68344e-20)
(-0.00478564 0.00206552 -2.57539e-20)
(-0.00383464 0.00206552 4.0046e-20)
(-0.00292163 0.00206552 3.73949e-21)
(-0.0020451 0.00206552 -5.08797e-21)
(-0.0012036 0.00206552 -1.02406e-20)
(-0.000395709 0.00206552 -4.95622e-21)
(-0.0198086 0.00253261 -1.88543e-21)
(-0.0182574 0.00253261 -2.99234e-21)
(-0.0167681 0.00253261 -2.48357e-21)
(-0.0153384 0.00253261 -3.64067e-22)
(-0.0139658 0.00253261 3.50181e-21)
(-0.012648 0.00253261 -8.13595e-21)
(-0.0113829 0.00253261 -2.98748e-21)
(-0.0101683 0.00253261 -3.85725e-22)
(-0.00900222 0.00253261 -1.39244e-20)
(-0.00788276 0.00253261 3.37065e-20)
(-0.00680802 0.00253261 3.54914e-20)
(-0.00577621 0.00253261 -3.87352e-20)
(-0.00478564 0.00253261 4.01148e-21)
(-0.00383464 0.00253261 -7.64939e-23)
(-0.00292163 0.00253261 -1.34088e-20)
(-0.0020451 0.00253261 -5.64968e-21)
(-0.0012036 0.00253261 9.08535e-22)
(-0.000395709 0.00253261 -2.6793e-21)
(-0.0198086 0.00303323 3.07724e-21)
(-0.0182574 0.00303323 -1.1583e-21)
(-0.0167681 0.00303323 3.55344e-20)
(-0.0153384 0.00303323 -3.33257e-21)
(-0.0139658 0.00303323 -5.88059e-22)
(-0.012648 0.00303323 2.36311e-20)
(-0.0113829 0.00303323 -3.54335e-20)
(-0.0101683 0.00303323 2.02741e-22)
(-0.00900222 0.00303323 2.11313e-20)
(-0.00788276 0.00303323 2.73872e-21)
(-0.00680802 0.00303323 1.52256e-20)
(-0.00577621 0.00303323 1.38135e-20)
(-0.00478564 0.00303323 2.03512e-20)
(-0.00383464 0.00303323 1.39091e-20)
(-0.00292163 0.00303323 -3.82135e-20)
(-0.0020451 0.00303323 3.23378e-21)
(-0.0012036 0.00303323 1.90787e-22)
(-0.000395709 0.00303323 3.96979e-21)
(-0.0198086 0.00356977 -1.95738e-22)
(-0.0182574 0.00356977 -2.34484e-22)
(-0.0167681 0.00356977 9.99776e-21)
(-0.0153384 0.00356977 3.50604e-20)
(-0.0139658 0.00356977 2.40053e-20)
(-0.012648 0.00356977 -5.95873e-20)
(-0.0113829 0.00356977 2.38614e-20)
(-0.0101683 0.00356977 1.11461e-20)
(-0.00900222 0.00356977 3.33471e-20)
(-0.00788276 0.00356977 1.14101e-20)
(-0.00680802 0.00356977 1.04971e-20)
(-0.00577621 0.00356977 3.61963e-20)
(-0.00478564 0.00356977 4.55379e-20)
(-0.00383464 0.00356977 -6.73781e-22)
(-0.00292163 0.00356977 3.86455e-20)
(-0.0020451 0.00356977 -5.80457e-21)
(-0.0012036 0.00356977 4.45558e-21)
(-0.000395709 0.00356977 -1.64239e-20)
(-0.0198086 0.00414483 -1.60959e-21)
(-0.0182574 0.00414483 6.47546e-21)
(-0.0167681 0.00414483 4.94097e-20)
(-0.0153384 0.00414483 4.57511e-21)
(-0.0139658 0.00414483 -3.76166e-21)
(-0.012648 0.00414483 1.03757e-20)
(-0.0113829 0.00414483 1.12318e-20)
(-0.0101683 0.00414483 3.97819e-21)
(-0.00900222 0.00414483 3.21275e-20)
(-0.00788276 0.00414483 3.13351e-21)
(-0.00680802 0.00414483 8.03574e-21)
(-0.00577621 0.00414483 -1.65112e-20)
(-0.00478564 0.00414483 1.03007e-20)
(-0.00383464 0.00414483 -4.2333e-20)
(-0.00292163 0.00414483 1.02666e-21)
(-0.0020451 0.00414483 8.57792e-21)
(-0.0012036 0.00414483 5.86594e-21)
(-0.000395709 0.00414483 1.1034e-20)
(-0.0198086 0.00476116 -5.66456e-21)
(-0.0182574 0.00476116 -6.28392e-21)
(-0.0167681 0.00476116 -1.40822e-20)
(-0.0153384 0.00476116 -7.67219e-21)
(-0.0139658 0.00476116 1.2176e-21)
(-0.012648 0.00476116 7.10639e-21)
(-0.0113829 0.00476116 -1.50422e-20)
(-0.0101683 0.00476116 -4.04727e-20)
(-0.00900222 0.00476116 6.1826e-20)
(-0.00788276 0.00476116 5.96943e-22)
(-0.00680802 0.00476116 -6.29529e-20)
(-0.00577621 0.00476116 -2.33442e-21)
(-0.00478564 0.00476116 3.17065e-20)
(-0.00383464 0.00476116 -1.0525e-20)
(-0.00292163 0.00476116 2.75447e-20)
(-0.0020451 0.00476116 3.01919e-20)
(-0.0012036 0.00476116 -2.34019e-21)
(-0.000395709 0.00476116 -5.63091e-20)
(-0.0198086 0.00536704 -3.33824e-21)
(-0.0182574 0.00536704 1.95156e-21)
(-0.0167681 0.00536704 -6.76608e-20)
(-0.0153384 0.00536704 -6.66816e-22)
(-0.0139658 0.00536704 -1.49095e-20)
(-0.012648 0.00536704 -3.09377e-20)
(-0.0113829 0.00536704 -1.45002e-20)
(-0.0101683 0.00536704 2.55232e-20)
(-0.00900222 0.00536704 -3.41904e-20)
(-0.00788276 0.00536704 4.03858e-22)
(-0.00680802 0.00536704 -2.21065e-20)
(-0.00577621 0.00536704 8.43999e-21)
(-0.00478564 0.00536704 7.49406e-22)
(-0.00383464 0.00536704 1.21681e-21)
(-0.00292163 0.00536704 -8.45358e-21)
(-0.0020451 0.00536704 -2.96204e-21)
(-0.0012036 0.00536704 -1.24608e-20)
(-0.000395709 0.00536704 -8.51078e-21)
(-0.0198086 0.00600399 -7.11843e-21)
(-0.0182574 0.00600399 9.62266e-21)
(-0.0167681 0.00600399 -8.68314e-22)
(-0.0153384 0.00600399 -2.85812e-21)
(-0.0139658 0.00600399 -5.02889e-21)
(-0.012648 0.00600399 -4.14996e-20)
(-0.0113829 0.00600399 -2.93383e-21)
(-0.0101683 0.00600399 4.05976e-20)
(-0.00900222 0.00600399 2.34822e-20)
(-0.00788276 0.00600399 6.06394e-20)
(-0.00680802 0.00600399 -1.53979e-21)
(-0.00577621 0.00600399 -2.32287e-20)
(-0.00478564 0.00600399 -3.7038e-20)
(-0.00383464 0.00600399 1.32818e-20)
(-0.00292163 0.00600399 -6.11725e-21)
(-0.0020451 0.00600399 -8.79951e-21)
(-0.0012036 0.00600399 6.51477e-24)
(-0.000395709 0.00600399 4.83506e-22)
(-0.0198086 0.00678044 4.55307e-20)
(-0.0182574 0.00678044 6.6234e-20)
(-0.0167681 0.00678044 -6.02536e-21)
(-0.0153384 0.00678044 -1.35629e-20)
(-0.0139658 0.00678044 -3.77671e-21)
(-0.012648 0.00678044 -2.66023e-20)
(-0.0113829 0.00678044 -1.11322e-21)
(-0.0101683 0.00678044 -3.66406e-20)
(-0.00900222 0.00678044 3.05516e-20)
(-0.00788276 0.00678044 1.32914e-21)
(-0.00680802 0.00678044 3.22888e-20)
(-0.00577621 0.00678044 -2.66059e-20)
(-0.00478564 0.00678044 -4.29126e-22)
(-0.00383464 0.00678044 -3.92493e-20)
(-0.00292163 0.00678044 1.5904e-21)
(-0.0020451 0.00678044 -1.51075e-20)
(-0.0012036 0.00678044 -3.50473e-20)
(-0.000395709 0.00678044 -1.37496e-21)
(-0.0198086 0.00772694 -2.90119e-21)
(-0.0182574 0.00772694 -2.48631e-20)
(-0.0167681 0.00772694 7.55503e-21)
(-0.0153384 0.00772694 -3.03699e-21)
(-0.0139658 0.00772694 -3.19217e-20)
(-0.012648 0.00772694 -2.70368e-21)
(-0.0113829 0.00772694 -3.21931e-21)
(-0.0101683 0.00772694 7.22298e-21)
(-0.00900222 0.00772694 3.94409e-20)
(-0.00788276 0.00772694 1.62981e-21)
(-0.00680802 0.00772694 2.6577e-20)
(-0.00577621 0.00772694 -7.95054e-22)
(-0.00478564 0.00772694 3.85488e-20)
(-0.00383464 0.00772694 3.84756e-20)
(-0.00292163 0.00772694 -1.88947e-23)
(-0.0020451 0.00772694 3.37802e-20)
(-0.0012036 0.00772694 -3.92972e-21)
(-0.000395709 0.00772694 2.53087e-20)
(-0.0198086 0.00888075 1.77616e-20)
(-0.0182574 0.00888075 4.32976e-21)
(-0.0167681 0.00888075 -3.31431e-20)
(-0.0153384 0.00888075 1.12179e-21)
(-0.0139658 0.00888075 -3.02849e-20)
(-0.012648 0.00888075 -1.12403e-20)
(-0.0113829 0.00888075 4.99826e-21)
(-0.0101683 0.00888075 1.05643e-20)
(-0.00900222 0.00888075 -1.26145e-21)
(-0.00788276 0.00888075 3.40601e-21)
(-0.00680802 0.00888075 1.42404e-20)
(-0.00577621 0.00888075 -1.05615e-20)
(-0.00478564 0.00888075 6.98202e-21)
(-0.00383464 0.00888075 -2.67097e-20)
(-0.00292163 0.00888075 -2.88182e-20)
(-0.0020451 0.00888075 3.09154e-20)
(-0.0012036 0.00888075 2.40164e-20)
(-0.000395709 0.00888075 2.35788e-20)
(-0.0198086 0.0102872 -5.16817e-21)
(-0.0182574 0.0102872 -3.47371e-20)
(-0.0167681 0.0102872 5.75843e-22)
(-0.0153384 0.0102872 1.64409e-20)
(-0.0139658 0.0102872 1.61192e-20)
(-0.012648 0.0102872 1.46172e-20)
(-0.0113829 0.0102872 3.25884e-20)
(-0.0101683 0.0102872 -4.66138e-21)
(-0.00900222 0.0102872 2.51367e-21)
(-0.00788276 0.0102872 -4.69191e-21)
(-0.00680802 0.0102872 2.36197e-21)
(-0.00577621 0.0102872 -3.0919e-20)
(-0.00478564 0.0102872 -3.005e-20)
(-0.00383464 0.0102872 3.9279e-21)
(-0.00292163 0.0102872 -6.95071e-21)
(-0.0020451 0.0102872 -6.66512e-21)
(-0.0012036 0.0102872 2.3198e-20)
(-0.000395709 0.0102872 -5.71185e-21)
(-0.0198086 0.0120018 -1.0001e-20)
(-0.0182574 0.0120018 3.17184e-20)
(-0.0167681 0.0120018 -1.11262e-20)
(-0.0153384 0.0120018 -5.77092e-21)
(-0.0139658 0.0120018 -6.59702e-21)
(-0.012648 0.0120018 -4.55343e-21)
(-0.0113829 0.0120018 -3.2595e-20)
(-0.0101683 0.0120018 -8.64768e-22)
(-0.00900222 0.0120018 2.83923e-22)
(-0.00788276 0.0120018 -6.01815e-21)
(-0.00680802 0.0120018 -3.88295e-21)
(-0.00577621 0.0120018 1.44404e-21)
(-0.00478564 0.0120018 -5.01214e-22)
(-0.00383464 0.0120018 -5.78781e-21)
(-0.00292163 0.0120018 -4.43209e-21)
(-0.0020451 0.0120018 2.69182e-20)
(-0.0012036 0.0120018 3.40308e-20)
(-0.000395709 0.0120018 4.04004e-20)
(-0.0198086 0.0140918 -1.08147e-20)
(-0.0182574 0.0140918 -5.96565e-22)
(-0.0167681 0.0140918 2.89717e-20)
(-0.0153384 0.0140918 4.35231e-20)
(-0.0139658 0.0140918 -2.712e-20)
(-0.012648 0.0140918 4.32953e-20)
(-0.0113829 0.0140918 -1.83716e-20)
(-0.0101683 0.0140918 2.92865e-21)
(-0.00900222 0.0140918 -1.91497e-21)
(-0.00788276 0.0140918 2.2551e-20)
(-0.00680802 0.0140918 1.95925e-20)
(-0.00577621 0.0140918 -7.01398e-21)
(-0.00478564 0.0140918 2.31563e-21)
(-0.00383464 0.0140918 2.30176e-20)
(-0.00292163 0.0140918 -4.27887e-21)
(-0.0020451 0.0140918 1.47391e-20)
(-0.0012036 0.0140918 -1.41648e-20)
(-0.000395709 0.0140918 -3.23507e-20)
(-0.0198086 0.0160805 3.23172e-21)
(-0.0182574 0.0160805 -9.50534e-22)
(-0.0167681 0.0160805 3.29628e-21)
(-0.0153384 0.0160805 -1.39195e-21)
(-0.0139658 0.0160805 -1.14214e-21)
(-0.012648 0.0160805 3.51864e-20)
(-0.0113829 0.0160805 -3.63066e-21)
(-0.0101683 0.0160805 8.62996e-21)
(-0.00900222 0.0160805 -3.82978e-20)
(-0.00788276 0.0160805 -2.55199e-20)
(-0.00680802 0.0160805 2.92895e-20)
(-0.00577621 0.0160805 3.99534e-20)
(-0.00478564 0.0160805 -2.49766e-20)
(-0.00383464 0.0160805 -3.57063e-20)
(-0.00292163 0.0160805 4.51432e-21)
(-0.0020451 0.0160805 -2.85298e-21)
(-0.0012036 0.0160805 1.28652e-21)
(-0.000395709 0.0160805 -1.49511e-20)
(-0.0198086 0.0176528 -1.7413e-21)
(-0.0182574 0.0176528 -3.32822e-20)
(-0.0167681 0.0176528 -5.95014e-22)
(-0.0153384 0.0176528 -1.07447e-20)
(-0.0139658 0.0176528 -4.32474e-21)
(-0.012648 0.0176528 -2.62346e-20)
(-0.0113829 0.0176528 -7.78412e-21)
(-0.0101683 0.0176528 -4.5039e-21)
(-0.00900222 0.0176528 7.70332e-20)
(-0.00788276 0.0176528 2.06739e-21)
(-0.00680802 0.0176528 -1.89154e-21)
(-0.00577621 0.0176528 1.45811e-20)
(-0.00478564 0.0176528 3.43014e-20)
(-0.00383464 0.0176528 1.35663e-20)
(-0.00292163 0.0176528 -1.78478e-21)
(-0.0020451 0.0176528 -3.80365e-21)
(-0.0012036 0.0176528 2.87685e-20)
(-0.000395709 0.0176528 -1.5545e-21)
(-0.0198086 0.0190215 -1.34249e-20)
(-0.0182574 0.0190215 8.74173e-21)
(-0.0167681 0.0190215 2.67453e-20)
(-0.0153384 0.0190215 -3.25877e-22)
(-0.0139658 0.0190215 -3.40728e-21)
(-0.012648 0.0190215 -7.44159e-20)
(-0.0113829 0.0190215 1.13931e-20)
(-0.0101683 0.0190215 1.25447e-20)
(-0.00900222 0.0190215 5.07845e-21)
(-0.00788276 0.0190215 -1.44342e-20)
(-0.00680802 0.0190215 4.86371e-21)
(-0.00577621 0.0190215 5.67369e-21)
(-0.00478564 0.0190215 2.20477e-20)
(-0.00383464 0.0190215 2.58228e-20)
(-0.00292163 0.0190215 -4.70812e-22)
(-0.0020451 0.0190215 -2.10917e-21)
(-0.0012036 0.0190215 -6.61063e-21)
(-0.000395709 0.0190215 -6.22352e-21)
(-0.0198086 0.0202131 2.91325e-20)
(-0.0182574 0.0202131 5.30613e-21)
(-0.0167681 0.0202131 1.48351e-21)
(-0.0153384 0.0202131 -6.21483e-21)
(-0.0139658 0.0202131 -2.65078e-22)
(-0.012648 0.0202131 -4.61881e-20)
(-0.0113829 0.0202131 3.00843e-21)
(-0.0101683 0.0202131 1.78861e-20)
(-0.00900222 0.0202131 -6.19318e-20)
(-0.00788276 0.0202131 1.76697e-20)
(-0.00680802 0.0202131 3.6496e-20)
(-0.00577621 0.0202131 -8.60401e-21)
(-0.00478564 0.0202131 2.0354e-21)
(-0.00383464 0.0202131 -3.71632e-21)
(-0.00292163 0.0202131 -3.78542e-20)
(-0.0020451 0.0202131 -3.64029e-20)
(-0.0012036 0.0202131 2.47165e-20)
(-0.000395709 0.0202131 -1.79691e-21)
(-0.0198086 0.0212504 -7.21191e-20)
(-0.0182574 0.0212504 -4.82798e-21)
(-0.0167681 0.0212504 2.27264e-21)
(-0.0153384 0.0212504 -4.39001e-21)
(-0.0139658 0.0212504 1.77814e-21)
(-0.012648 0.0212504 -1.30222e-20)
(-0.0113829 0.0212504 1.67005e-21)
(-0.0101683 0.0212504 1.92513e-21)
(-0.00900222 0.0212504 -2.92533e-21)
(-0.00788276 0.0212504 -1.35119e-21)
(-0.00680802 0.0212504 -3.19632e-20)
(-0.00577621 0.0212504 1.30816e-21)
(-0.00478564 0.0212504 5.50244e-21)
(-0.00383464 0.0212504 3.91021e-20)
(-0.00292163 0.0212504 -4.6864e-21)
(-0.0020451 0.0212504 -6.07575e-21)
(-0.0012036 0.0212504 -1.38154e-20)
(-0.000395709 0.0212504 -1.24693e-21)
(-0.0198086 0.0221534 -3.50644e-20)
(-0.0182574 0.0221534 -2.60416e-20)
(-0.0167681 0.0221534 6.54236e-21)
(-0.0153384 0.0221534 -2.21503e-21)
(-0.0139658 0.0221534 -3.60429e-21)
(-0.012648 0.0221534 -1.25729e-20)
(-0.0113829 0.0221534 -4.61509e-21)
(-0.0101683 0.0221534 -2.06932e-21)
(-0.00900222 0.0221534 -3.41008e-20)
(-0.00788276 0.0221534 2.08243e-21)
(-0.00680802 0.0221534 -1.88663e-21)
(-0.00577621 0.0221534 2.91771e-20)
(-0.00478564 0.0221534 6.15642e-21)
(-0.00383464 0.0221534 -8.98897e-21)
(-0.00292163 0.0221534 3.80778e-21)
(-0.0020451 0.0221534 -2.55963e-21)
(-0.0012036 0.0221534 3.24697e-21)
(-0.000395709 0.0221534 5.09351e-22)
(-0.0198086 0.0229396 -1.97378e-21)
(-0.0182574 0.0229396 -2.13485e-21)
(-0.0167681 0.0229396 -8.16613e-21)
(-0.0153384 0.0229396 -3.63017e-20)
(-0.0139658 0.0229396 -3.85309e-20)
(-0.012648 0.0229396 -5.73882e-21)
(-0.0113829 0.0229396 -3.49562e-21)
(-0.0101683 0.0229396 -5.2723e-21)
(-0.00900222 0.0229396 2.28539e-20)
(-0.00788276 0.0229396 2.11817e-21)
(-0.00680802 0.0229396 -2.5167e-20)
(-0.00577621 0.0229396 1.95797e-20)
(-0.00478564 0.0229396 6.44382e-21)
(-0.00383464 0.0229396 -7.855e-21)
(-0.00292163 0.0229396 4.16652e-20)
(-0.0020451 0.0229396 -3.13086e-20)
(-0.0012036 0.0229396 -3.79574e-21)
(-0.000395709 0.0229396 -2.32342e-21)
(-0.0198086 0.0236239 3.49075e-20)
(-0.0182574 0.0236239 -3.65701e-20)
(-0.0167681 0.0236239 -1.92399e-21)
(-0.0153384 0.0236239 -3.25877e-22)
(-0.0139658 0.0236239 2.757e-20)
(-0.012648 0.0236239 -1.28645e-20)
(-0.0113829 0.0236239 -4.17816e-20)
(-0.0101683 0.0236239 -3.13023e-20)
(-0.00900222 0.0236239 5.07845e-21)
(-0.00788276 0.0236239 -1.44342e-20)
(-0.00680802 0.0236239 7.77452e-21)
(-0.00577621 0.0236239 5.67369e-21)
(-0.00478564 0.0236239 2.20477e-20)
(-0.00383464 0.0236239 2.58228e-20)
(-0.00292163 0.0236239 -2.41304e-20)
(-0.0020451 0.0236239 -2.10917e-21)
(-0.0012036 0.0236239 -3.21525e-20)
(-0.000395709 0.0236239 -6.22352e-21)
(-0.0198086 0.0242197 -1.32055e-20)
(-0.0182574 0.0242197 3.4062e-20)
(-0.0167681 0.0242197 -3.11075e-20)
(-0.0153384 0.0242197 -3.46612e-20)
(-0.0139658 0.0242197 -5.58196e-22)
(-0.012648 0.0242197 -6.17274e-21)
(-0.0113829 0.0242197 5.45606e-21)
(-0.0101683 0.0242197 6.1402e-21)
(-0.00900222 0.0242197 1.23327e-20)
(-0.00788276 0.0242197 -2.20133e-20)
(-0.00680802 0.0242197 2.37802e-20)
(-0.00577621 0.0242197 1.98382e-22)
(-0.00478564 0.0242197 1.4021e-20)
(-0.00383464 0.0242197 1.28861e-20)
(-0.00292163 0.0242197 4.45348e-21)
(-0.0020451 0.0242197 -2.11987e-20)
(-0.0012036 0.0242197 1.11955e-21)
(-0.000395709 0.0242197 -3.44724e-21)
(-0.0198086 0.0247384 -7.21191e-20)
(-0.0182574 0.0247384 -3.32129e-20)
(-0.0167681 0.0247384 2.27264e-21)
(-0.0153384 0.0247384 -4.30809e-20)
(-0.0139658 0.0247384 1.77814e-21)
(-0.012648 0.0247384 -2.80301e-20)
(-0.0113829 0.0247384 1.67005e-21)
(-0.0101683 0.0247384 1.92513e-21)
(-0.00900222 0.0247384 2.90982e-20)
(-0.00788276 0.0247384 -1.35119e-21)
(-0.00680802 0.0247384 3.27187e-22)
(-0.00577621 0.0247384 -3.15113e-20)
(-0.00478564 0.0247384 -3.68492e-20)
(-0.00383464 0.0247384 1.77411e-22)
(-0.00292163 0.0247384 5.05762e-21)
(-0.0020451 0.0247384 -6.07575e-21)
(-0.0012036 0.0247384 6.83852e-20)
(-0.000395709 0.0247384 -1.24693e-21)
(-0.0198086 0.0251899 -5.6734e-21)
(-0.0182574 0.0251899 2.56763e-21)
(-0.0167681 0.0251899 9.43888e-22)
(-0.0153384 0.0251899 -9.12639e-22)
(-0.0139658 0.0251899 -8.89589e-21)
(-0.012648 0.0251899 -3.91267e-21)
(-0.0113829 0.0251899 1.72497e-21)
(-0.0101683 0.0251899 -3.57866e-20)
(-0.00900222 0.0251899 -3.5383e-20)
(-0.00788276 0.0251899 -1.38477e-21)
(-0.00680802 0.0251899 3.18221e-20)
(-0.00577621 0.0251899 -5.22652e-22)
(-0.00478564 0.0251899 3.29996e-20)
(-0.00383464 0.0251899 2.06557e-20)
(-0.00292163 0.0251899 1.10418e-20)
(-0.0020451 0.0251899 -5.40049e-21)
(-0.0012036 0.0251899 -5.36065e-21)
(-0.000395709 0.0251899 4.17909e-21)
(0.000264175 -0.0248357 1.00926e-21)
(0.000794616 -0.0248359 -3.57556e-20)
(0.00132918 -0.0248362 2.80534e-21)
(0.0018679 -0.0248364 5.86562e-23)
(0.00241081 -0.0248367 8.99046e-21)
(0.00295794 -0.0248369 2.33294e-20)
(0.00350933 -0.0248372 -1.73803e-20)
(0.004065 -0.0248374 4.41069e-20)
(0.00462499 -0.0248377 1.39026e-20)
(0.00518933 -0.0248379 -4.30028e-20)
(0.00575807 -0.0248382 -4.70413e-21)
(0.00633122 -0.0248384 -2.79404e-21)
(0.00690883 -0.0248387 -7.53988e-20)
(0.00749093 -0.024839 -1.30149e-21)
(0.00807756 -0.0248392 1.7091e-20)
(0.00866875 -0.0248395 2.5232e-20)
(0.00926453 -0.0248398 -3.36235e-20)
(0.00986495 -0.0248401 -4.17825e-21)
(0.01047 -0.0248403 1.68075e-21)
(0.0110798 -0.0248406 -2.88572e-20)
(0.0116944 -0.0248409 2.51664e-20)
(0.0123137 -0.0248412 2.80029e-21)
(0.0129378 -0.0248415 -9.50147e-21)
(0.0135668 -0.0248418 4.19423e-22)
(0.0142006 -0.024842 -2.56995e-20)
(0.0148394 -0.0248423 -7.79157e-22)
(0.0154832 -0.0248426 -4.32574e-21)
(0.0161319 -0.0248429 5.81738e-21)
(0.0167857 -0.0248432 -1.78299e-21)
(0.0174446 -0.0248435 1.73812e-21)
(0.0181087 -0.0248438 -1.18416e-20)
(0.0187778 -0.0248441 -1.44479e-21)
(0.0194522 -0.0248444 -3.51204e-21)
(0.0201318 -0.0248447 1.40784e-20)
(0.0208167 -0.0248451 1.50975e-21)
(0.021507 -0.0248454 -1.96083e-20)
(0.0222026 -0.0248457 4.62923e-21)
(0.0229036 -0.024846 3.18412e-20)
(0.02361 -0.0248463 3.46718e-21)
(0.024322 -0.0248467 -1.13747e-20)
(0.0250395 -0.024847 3.41628e-21)
(0.0257625 -0.0248473 -6.5082e-21)
(0.0264912 -0.0248477 -4.67992e-21)
(0.0272256 -0.024848 1.95869e-21)
(0.0279656 -0.0248483 4.21959e-20)
(0.0287114 -0.0248487 -3.03056e-21)
(0.029463 -0.024849 -4.3456e-20)
(0.0302205 -0.0248494 6.72471e-20)
(0.0309838 -0.0248497 3.27897e-20)
(0.0317531 -0.0248501 -2.89092e-21)
(0.0325284 -0.0248504 2.06532e-21)
(0.0333097 -0.0248508 4.73094e-21)
(0.034097 -0.0248511 4.79823e-21)
(0.0348905 -0.0248515 -1.81494e-21)
(0.0356902 -0.0248519 4.49179e-21)
(0.036496 -0.0248522 -1.583e-20)
(0.0373082 -0.0248526 -2.90059e-21)
(0.0381266 -0.024853 2.47028e-21)
(0.0389514 -0.0248533 -3.78966e-21)
(0.0397826 -0.0248537 9.29457e-21)
(0.0406203 -0.0248541 3.1691e-20)
(0.0414645 -0.0248545 -3.2873e-20)
(0.0423153 -0.0248549 3.8379e-21)
(0.0431727 -0.0248553 4.22792e-21)
(0.0440367 -0.0248557 3.13871e-20)
(0.0449075 -0.0248561 1.87202e-22)
(0.045785 -0.0248565 -2.32281e-21)
(0.0466693 -0.0248569 3.92553e-21)
(0.0475606 -0.0248573 -2.16132e-21)
(0.0484587 -0.0248577 2.22547e-20)
(0.0493639 -0.0248581 2.89712e-21)
(0.050276 -0.0248585 1.22503e-20)
(0.0511953 -0.0248589 -3.43599e-20)
(0.0521217 -0.0248594 -1.4586e-20)
(0.0530554 -0.0248598 -1.16418e-20)
(0.0539962 -0.0248602 -3.26893e-20)
(0.0549444 -0.0248606 -3.2829e-20)
(0.0559 -0.0248611 4.11292e-21)
(0.056863 -0.0248615 -1.00904e-21)
(0.0578335 -0.024862 2.716e-21)
(0.0588115 -0.0248624 -2.27611e-20)
(0.0597971 -0.0248629 1.25093e-20)
(0.0607904 -0.0248633 -5.7104e-21)
(0.0617914 -0.0248638 6.53217e-21)
(0.0628002 -0.0248642 -1.316e-20)
(0.0638169 -0.0248647 -9.29127e-21)
(0.0648414 -0.0248652 3.52152e-20)
(0.0658739 -0.0248656 1.91892e-20)
(0.0669145 -0.0248661 -2.27518e-21)
(0.0679631 -0.0248666 -9.59561e-22)
(0.0690199 -0.0248671 -2.15388e-21)
(0.0700849 -0.0248676 -1.0668e-20)
(0.0711581 -0.0248681 2.72013e-21)
(0.0722398 -0.0248685 -2.17252e-21)
(0.0733298 -0.024869 -3.81297e-22)
(0.0744283 -0.0248695 -3.90594e-20)
(0.0755354 -0.0248701 -2.36372e-20)
(0.076651 -0.0248706 -1.69329e-20)
(0.0777753 -0.0248711 2.01744e-21)
(0.0789084 -0.0248716 -7.39545e-21)
(0.0800503 -0.0248721 2.35453e-20)
(0.081201 -0.0248726 6.13639e-21)
(0.0823607 -0.0248732 -9.1671e-22)
(0.0835295 -0.0248737 -1.79005e-20)
(0.0847073 -0.0248742 -4.60951e-20)
(0.0858942 -0.0248748 -2.74189e-20)
(0.0870904 -0.0248753 -1.19904e-21)
(0.0882959 -0.0248759 -7.53667e-20)
(0.0895108 -0.0248764 4.25841e-20)
(0.0907351 -0.024877 -6.09461e-21)
(0.0919689 -0.0248776 -4.25764e-20)
(0.0932123 -0.0248781 1.2286e-21)
(0.0944654 -0.0248787 -4.30474e-22)
(0.0957282 -0.0248793 -3.45053e-20)
(0.0970009 -0.0248799 -2.58549e-20)
(0.0982834 -0.0248804 3.88843e-21)
(0.0995759 -0.024881 4.27889e-21)
(0.100879 -0.0248816 1.49149e-20)
(0.102191 -0.0248822 3.70733e-20)
(0.103514 -0.0248828 4.95238e-21)
(0.104847 -0.0248834 -6.80214e-21)
(0.106191 -0.024884 3.7012e-21)
(0.107545 -0.0248847 -1.32351e-21)
(0.108909 -0.0248853 3.66908e-20)
(0.110284 -0.0248859 1.40167e-21)
(0.11167 -0.0248866 -1.2988e-20)
(0.113067 -0.0248872 2.17229e-20)
(0.114474 -0.0248878 4.76574e-21)
(0.115893 -0.0248885 -9.50401e-21)
(0.117322 -0.0248891 -4.00768e-20)
(0.118763 -0.0248898 5.45273e-21)
(0.120214 -0.0248905 6.69428e-21)
(0.121677 -0.0248911 -2.46526e-20)
(0.123152 -0.0248918 7.85996e-22)
(0.124638 -0.0248925 -1.05704e-20)
(0.126135 -0.0248932 -8.00272e-20)
(0.127644 -0.0248938 3.16434e-20)
(0.129165 -0.0248945 3.49412e-20)
(0.130698 -0.0248952 1.11571e-20)
(0.132242 -0.0248959 -1.28296e-20)
(0.133799 -0.0248967 2.2182e-20)
(0.135367 -0.0248974 -1.03294e-20)
(0.136948 -0.0248981 -1.3178e-20)
(0.138541 -0.0248988 2.68031e-20)
(0.140147 -0.0248996 1.58324e-21)
(0.141765 -0.0249003 -5.47437e-20)
(0.143395 -0.024901 2.70739e-20)
(0.145038 -0.0249018 3.11502e-20)
(0.146694 -0.0249025 8.19136e-21)
(0.148363 -0.0249033 3.22741e-20)
(0.150045 -0.0249041 -9.46153e-21)
(0.15174 -0.0249049 3.09601e-21)
(0.153448 -0.0249056 -4.72243e-21)
(0.15517 -0.0249064 -3.66894e-20)
(0.156904 -0.0249072 -2.90868e-21)
(0.158653 -0.024908 2.35289e-20)
(0.160415 -0.0249088 -3.34687e-20)
(0.16219 -0.0249096 2.9786e-20)
(0.16398 -0.0249104 -1.15284e-20)
(0.165783 -0.0249113 -4.45046e-21)
(0.1676 -0.0249121 2.63559e-20)
(0.169432 -0.0249129 -1.6247e-21)
(0.171277 -0.0249138 3.97192e-20)
(0.173137 -0.0249146 -1.22114e-20)
(0.175012 -0.0249155 -2.47254e-20)
(0.176901 -0.0249163 3.35585e-21)
(0.178805 -0.0249172 4.23196e-21)
(0.180723 -0.0249181 -2.46182e-21)
(0.182657 -0.024919 3.27958e-20)
(0.184605 -0.0249199 4.42317e-21)
(0.186569 -0.0249208 1.89219e-21)
(0.188548 -0.0249217 1.67494e-21)
(0.190542 -0.0249226 3.34322e-20)
(0.192552 -0.0249235 -4.46837e-20)
(0.194577 -0.0249244 3.49993e-21)
(0.196618 -0.0249253 3.49465e-20)
(0.198675 -0.0249263 -3.99058e-20)
(0.200748 -0.0249272 1.33546e-20)
(0.202837 -0.0249282 1.09275e-20)
(0.204943 -0.0249291 5.6533e-20)
(0.000264175 -0.023707 2.77211e-22)
(0.000794616 -0.0237078 -7.91228e-21)
(0.00132918 -0.0237085 3.48291e-21)
(0.0018679 -0.0237092 -3.18182e-20)
(0.00241081 -0.02371 -6.04687e-21)
(0.00295794 -0.0237107 -3.58385e-20)
(0.00350933 -0.0237115 -1.4091e-20)
(0.004065 -0.0237122 -6.07107e-20)
(0.00462499 -0.023713 -6.26683e-20)
(0.00518933 -0.0237138 2.7755e-20)
(0.00575807 -0.0237146 1.3142e-20)
(0.00633122 -0.0237153 1.14287e-22)
(0.00690883 -0.0237161 -4.77036e-21)
(0.00749093 -0.0237169 4.65762e-20)
(0.00807756 -0.0237177 -1.6671e-20)
(0.00866875 -0.0237185 -4.75169e-21)
(0.00926453 -0.0237194 -5.64661e-20)
(0.00986495 -0.0237202 -5.57574e-21)
(0.01047 -0.023721 1.5309e-21)
(0.0110798 -0.0237218 5.61742e-21)
(0.0116944 -0.0237227 1.57169e-20)
(0.0123137 -0.0237235 -7.74895e-21)
(0.0129378 -0.0237244 -9.43841e-22)
(0.0135668 -0.0237253 2.61468e-20)
(0.0142006 -0.0237261 -2.79547e-20)
(0.0148394 -0.023727 -2.4859e-20)
(0.0154832 -0.0237279 -3.5858e-20)
(0.0161319 -0.0237288 -4.94416e-21)
(0.0167857 -0.0237297 -2.10881e-20)
(0.0174446 -0.0237306 -8.65989e-23)
(0.0181087 -0.0237315 2.59568e-20)
(0.0187778 -0.0237324 2.53656e-20)
(0.0194522 -0.0237333 2.58657e-20)
(0.0201318 -0.0237342 -6.25296e-21)
(0.0208167 -0.0237352 -7.53692e-22)
(0.021507 -0.0237361 2.61218e-21)
(0.0222026 -0.0237371 1.85571e-22)
(0.0229036 -0.023738 -3.14994e-20)
(0.02361 -0.023739 -4.95608e-21)
(0.024322 -0.02374 -2.78439e-20)
(0.0250395 -0.023741 3.09513e-21)
(0.0257625 -0.023742 -4.55465e-21)
(0.0264912 -0.023743 6.38345e-21)
(0.0272256 -0.023744 1.40187e-21)
(0.0279656 -0.023745 1.02757e-20)
(0.0287114 -0.023746 -2.47715e-21)
(0.029463 -0.023747 3.82275e-20)
(0.0302205 -0.0237481 5.40386e-21)
(0.0309838 -0.0237491 2.18598e-21)
(0.0317531 -0.0237502 -4.98956e-21)
(0.0325284 -0.0237512 2.33385e-20)
(0.0333097 -0.0237523 -3.11802e-20)
(0.034097 -0.0237534 -6.46906e-23)
(0.0348905 -0.0237545 3.17583e-21)
(0.0356902 -0.0237556 2.12086e-20)
(0.036496 -0.0237567 3.74547e-20)
(0.0373082 -0.0237578 -2.55254e-20)
(0.0381266 -0.0237589 7.72264e-21)
(0.0389514 -0.02376 -4.2633e-21)
(0.0397826 -0.0237612 4.38867e-21)
(0.0406203 -0.0237623 6.47465e-21)
(0.0414645 -0.0237635 9.25787e-22)
(0.0423153 -0.0237646 -5.46236e-21)
(0.0431727 -0.0237658 3.47921e-21)
(0.0440367 -0.023767 -7.86998e-21)
(0.0449075 -0.0237682 3.97097e-20)
(0.045785 -0.0237694 -6.11926e-22)
(0.0466693 -0.0237706 -2.03029e-21)
(0.0475606 -0.0237718 1.89394e-20)
(0.0484587 -0.0237731 -4.12305e-21)
(0.0493639 -0.0237743 -8.26426e-21)
(0.050276 -0.0237755 2.65037e-21)
(0.0511953 -0.0237768 -3.42349e-22)
(0.0521217 -0.0237781 9.27154e-22)
(0.0530554 -0.0237794 -7.0808e-22)
(0.0539962 -0.0237806 4.855e-21)
(0.0549444 -0.0237819 -1.65155e-21)
(0.0559 -0.0237833 -2.07864e-20)
(0.056863 -0.0237846 3.0186e-21)
(0.0578335 -0.0237859 2.16588e-21)
(0.0588115 -0.0237872 -2.03818e-20)
(0.0597971 -0.0237886 1.2309e-20)
(0.0607904 -0.02379 -2.63223e-21)
(0.0617914 -0.0237913 2.28141e-20)
(0.0628002 -0.0237927 -1.64464e-21)
(0.0638169 -0.0237941 -9.55948e-21)
(0.0648414 -0.0237955 1.01054e-20)
(0.0658739 -0.0237969 -7.91893e-21)
(0.0669145 -0.0237983 2.89947e-20)
(0.0679631 -0.0237998 -3.11707e-21)
(0.0690199 -0.0238012 -1.22409e-22)
(0.0700849 -0.0238027 9.55916e-21)
(0.0711581 -0.0238042 2.68828e-21)
(0.0722398 -0.0238056 -2.29438e-20)
(0.0733298 -0.0238071 2.32298e-21)