/*--------------------------------*- C++ -*----------------------------------*\
  =========                 |
  \\      /  F ield         | OpenFOAM: The Open Source CFD Toolbox
   \\    /   O peration     | Website:  https://openfoam.org
    \\  /    A nd           | Version:  13
     \\/     M anipulation  |
\*---------------------------------------------------------------------------*/
FoamFile
{
    format      ascii;
    class       volScalarField;
    location    "2000";
    object      Ccz;
}
// * * * * * * * * * * * * * * * * * * * * * * * * * * * * * * * * * * * * * //

dimensions      [0 1 0 0 0 0 0];

internalField   nonuniform List<scalar> 
12225
(
-3.0441e-20
-1.36192e-20
2.76292e-20
-2.87834e-21
-1.28714e-20
2.4247e-21
-4.50541e-21
-1.36792e-21
2.46956e-20
2.35278e-20
-3.69648e-21
-1.15229e-20
-1.10677e-20
-1.14048e-20
1.41138e-21
-1.40397e-21
-1.01027e-20
-2.48511e-21
-3.72555e-20
-2.8142e-20
1.94861e-20
-3.05603e-21
-3.81609e-20
3.39123e-21
-3.33184e-20
4.99731e-21
-2.49639e-20
1.28868e-20
6.31324e-21
-1.37609e-20
1.18069e-20
4.17953e-23
3.09207e-20
-1.15056e-21
1.21751e-20
-2.30973e-20
1.33887e-21
1.00166e-20
1.20605e-20
-2.11314e-20
3.77738e-20
5.91956e-20
-1.04494e-20
2.2604e-21
9.50948e-22
-2.23508e-21
-2.19619e-20
3.69461e-23
8.06036e-21
3.29844e-20
-7.65503e-22
6.00189e-21
8.86564e-21
3.61297e-21
-1.06023e-21
-1.07373e-21
1.59859e-21
-3.51376e-21
3.31442e-22
-3.57279e-21
-1.0039e-20
2.56e-21
3.05641e-20
-5.14488e-21
-7.18892e-20
2.47496e-20
4.51998e-21
-1.89168e-20
-1.58482e-21
-1.27634e-20
2.72367e-21
-8.11317e-21
-4.95862e-21
6.57311e-22
5.20357e-21
4.94306e-22
6.46892e-21
-4.56042e-21
1.12424e-20
-3.17094e-20
9.51497e-21
3.49398e-20
3.21724e-20
3.41852e-20
-1.81816e-20
1.37528e-20
4.4045e-21
2.9895e-21
5.60099e-22
-5.03334e-21
-4.17517e-21
7.16411e-21
1.45281e-20
-6.83738e-21
-1.14056e-20
-1.14375e-20
-1.0335e-22
4.66563e-20
-1.35225e-20
-3.14014e-20
-3.23253e-20
-2.68344e-20
-2.57539e-20
4.0046e-20
3.73949e-21
-5.08797e-21
-1.02406e-20
-4.95622e-21
-1.88543e-21
-2.99234e-21
-2.48357e-21
-3.64067e-22
3.50181e-21
-8.13595e-21
-2.98748e-21
-3.85725e-22
-1.39244e-20
3.37065e-20
3.54914e-20
-3.87352e-20
4.01148e-21
-7.64939e-23
-1.34088e-20
-5.64968e-21
9.08535e-22
-2.6793e-21
3.07724e-21
-1.1583e-21
3.55344e-20
-3.33257e-21
-5.88059e-22
2.36311e-20
-3.54335e-20
2.02741e-22
2.11313e-20
2.73872e-21
1.52256e-20
1.38135e-20
2.03512e-20
1.39091e-20
-3.82135e-20
3.23378e-21
1.90787e-22
3.96979e-21
-1.95738e-22
-2.34484e-22
9.99776e-21
3.50604e-20
2.40053e-20
-5.95873e-20
2.38614e-20
1.11461e-20
3.33471e-20
1.14101e-20
1.04971e-20
3.61963e-20
4.55379e-20
-6.73781e-22
3.86455e-20
-5.80457e-21
4.45558e-21
-1.64239e-20
-1.60959e-21
6.47546e-21
4.94097e-20
4.57511e-21
-3.76166e-21
1.03757e-20
1.12318e-20
3.97819e-21
3.21275e-20
3.13351e-21
8.03574e-21
-1.65112e-20
1.03007e-20
-4.2333e-20
1.02666e-21
8.57792e-21
5.86594e-21
1.1034e-20
-5.66456e-21
-6.28392e-21
-1.40822e-20
-7.67219e-21
1.2176e-21
7.10639e-21
-1.50422e-20
-4.04727e-20
6.1826e-20
5.96943e-22
-6.29529e-20
-2.33442e-21
3.17065e-20
-1.0525e-20
2.75447e-20
3.01919e-20
-2.34019e-21
-5.63091e-20
-3.33824e-21
1.95156e-21
-6.76608e-20
-6.66816e-22
-1.49095e-20
-3.09377e-20
-1.45002e-20
2.55232e-20
-3.41904e-20
4.03858e-22
-2.21065e-20
8.43999e-21
7.49406e-22
1.21681e-21
-8.45358e-21
-2.96204e-21
-1.24608e-20
-8.51078e-21
-7.11843e-21
9.62266e-21
-8.68314e-22
-2.85812e-21
-5.02889e-21
-4.14996e-20
-2.93383e-21
4.05976e-20
2.34822e-20
6.06394e-20
-1.53979e-21
-2.32287e-20
-3.7038e-20
1.32818e-20
-6.11725e-21
-8.79951e-21
6.51477e-24
4.83506e-22
4.55307e-20
6.6234e-20
-6.02536e-21
-1.35629e-20
-3.77671e-21
-2.66023e-20
-1.11322e-21
-3.66406e-20
3.05516e-20
1.32914e-21
3.22888e-20
-2.66059e-20
-4.29126e-22
-3.92493e-20
1.5904e-21
-1.51075e-20
-3.50473e-20
-1.37496e-21
-2.90119e-21
-2.48631e-20
7.55503e-21
-3.03699e-21
-3.19217e-20
-2.70368e-21
-3.21931e-21
7.22298e-21
3.94409e-20
1.62981e-21
2.6577e-20
-7.95054e-22
3.85488e-20
3.84756e-20
-1.88947e-23
3.37802e-20
-3.92972e-21
2.53087e-20
1.77616e-20
4.32976e-21
-3.31431e-20
1.12179e-21
-3.02849e-20
-1.12403e-20
4.99826e-21
1.05643e-20
-1.26145e-21
3.40601e-21
1.42404e-20
-1.05615e-20
6.98202e-21
-2.67097e-20
-2.88182e-20
3.09154e-20
2.40164e-20
2.35788e-20
-5.16817e-21
-3.47371e-20
5.75843e-22
1.64409e-20
1.61192e-20
1.46172e-20
3.25884e-20
-4.66138e-21
2.51367e-21
-4.69191e-21
2.36197e-21
-3.0919e-20
-3.005e-20
3.9279e-21
-6.95071e-21
-6.66512e-21
2.3198e-20
-5.71185e-21
-1.0001e-20
3.17184e-20
-1.11262e-20
-5.77092e-21
-6.59702e-21
-4.55343e-21
-3.2595e-20
-8.64768e-22
2.83923e-22
-6.01815e-21
-3.88295e-21
1.44404e-21
-5.01214e-22
-5.78781e-21
-4.43209e-21
2.69182e-20
3.40308e-20
4.04004e-20
-1.08147e-20
-5.96565e-22
2.89717e-20
4.35231e-20
-2.712e-20
4.32953e-20
-1.83716e-20
2.92865e-21
-1.91497e-21
2.2551e-20
1.95925e-20
-7.01398e-21
2.31563e-21
2.30176e-20
-4.27887e-21
1.47391e-20
-1.41648e-20
-3.23507e-20
3.23172e-21
-9.50534e-22
3.29628e-21
-1.39195e-21
-1.14214e-21
3.51864e-20
-3.63066e-21
8.62996e-21
-3.82978e-20
-2.55199e-20
2.92895e-20
3.99534e-20
-2.49766e-20
-3.57063e-20
4.51432e-21
-2.85298e-21
1.28652e-21
-1.49511e-20
-1.7413e-21
-3.32822e-20
-5.95014e-22
-1.07447e-20
-4.32474e-21
-2.62346e-20
-7.78412e-21
-4.5039e-21
7.70332e-20
2.06739e-21
-1.89154e-21
1.45811e-20
3.43014e-20
1.35663e-20
-1.78478e-21
-3.80365e-21
2.87685e-20
-1.5545e-21
-1.34249e-20
8.74173e-21
2.67453e-20
-3.25877e-22
-3.40728e-21
-7.44159e-20
1.13931e-20
1.25447e-20
5.07845e-21
-1.44342e-20
4.86371e-21
5.67369e-21
2.20477e-20
2.58228e-20
-4.70812e-22
-2.10917e-21
-6.61063e-21
-6.22352e-21
2.91325e-20
5.30613e-21
1.48351e-21
-6.21483e-21
-2.65078e-22
-4.61881e-20
3.00843e-21
1.78861e-20
-6.19318e-20
1.76697e-20
3.6496e-20
-8.60401e-21
2.0354e-21
-3.71632e-21
-3.78542e-20
-3.64029e-20
2.47165e-20
-1.79691e-21
-7.21191e-20
-4.82798e-21
2.27264e-21
-4.39001e-21
1.77814e-21
-1.30222e-20
1.67005e-21
1.92513e-21
-2.92533e-21
-1.35119e-21
-3.19632e-20
1.30816e-21
5.50244e-21
3.91021e-20
-4.6864e-21
-6.07575e-21
-1.38154e-20
-1.24693e-21
-3.50644e-20
-2.60416e-20
6.54236e-21
-2.21503e-21
-3.60429e-21
-1.25729e-20
-4.61509e-21
-2.06932e-21
-3.41008e-20
2.08243e-21
-1.88663e-21
2.91771e-20
6.15642e-21
-8.98897e-21
3.80778e-21
-2.55963e-21
3.24697e-21
5.09351e-22
-1.97378e-21
-2.13485e-21
-8.16613e-21
-3.63017e-20
-3.85309e-20
-5.73882e-21
-3.49562e-21
-5.2723e-21
2.28539e-20
2.11817e-21
-2.5167e-20
1.95797e-20
6.44382e-21
-7.855e-21
4.16652e-20
-3.13086e-20
-3.79574e-21
-2.32342e-21
3.49075e-20
-3.65701e-20
-1.92399e-21
-3.25877e-22
2.757e-20
-1.28645e-20
-4.17816e-20
-3.13023e-20
5.07845e-21
-1.44342e-20
7.77452e-21
5.67369e-21
2.20477e-20
2.58228e-20
-2.41304e-20
-2.10917e-21
-3.21525e-20
-6.22352e-21
-1.32055e-20
3.4062e-20
-3.11075e-20
-3.46612e-20
-5.58196e-22
-6.17274e-21
5.45606e-21
6.1402e-21
1.23327e-20
-2.20133e-20
2.37802e-20
1.98382e-22
1.4021e-20
1.28861e-20
4.45348e-21
-2.11987e-20
1.11955e-21
-3.44724e-21
-7.21191e-20
-3.32129e-20
2.27264e-21
-4.30809e-20
1.77814e-21
-2.80301e-20
1.67005e-21
1.92513e-21
2.90982e-20
-1.35119e-21
3.27187e-22
-3.15113e-20
-3.68492e-20
1.77411e-22
5.05762e-21
-6.07575e-21
6.83852e-20
-1.24693e-21
-5.6734e-21
2.56763e-21
9.43888e-22
-9.12639e-22
-8.89589e-21
-3.91267e-21
1.72497e-21
-3.57866e-20
-3.5383e-20
-1.38477e-21
3.18221e-20
-5.22652e-22
3.29996e-20
2.06557e-20
1.10418e-20
-5.40049e-21
-5.36065e-21
4.17909e-21
1.00926e-21
-3.57556e-20
2.80534e-21
5.86562e-23
8.99046e-21
2.33294e-20
-1.73803e-20
4.41069e-20
1.39026e-20
-4.30028e-20
-4.70413e-21
-2.79404e-21
-7.53988e-20
-1.30149e-21
1.7091e-20
2.5232e-20
-3.36235e-20
-4.17825e-21
1.68075e-21
-2.88572e-20
2.51664e-20
2.80029e-21
-9.50147e-21
4.19423e-22
-2.56995e-20
-7.79157e-22
-4.32574e-21
5.81738e-21
-1.78299e-21
1.73812e-21
-1.18416e-20
-1.44479e-21
-3.51204e-21
1.40784e-20
1.50975e-21
-1.96083e-20
4.62923e-21
3.18412e-20
3.46718e-21
-1.13747e-20
3.41628e-21
-6.5082e-21
-4.67992e-21
1.95869e-21
4.21959e-20
-3.03056e-21
-4.3456e-20
6.72471e-20
3.27897e-20
-2.89092e-21
2.06532e-21
4.73094e-21
4.79823e-21
-1.81494e-21
4.49179e-21
-1.583e-20
-2.90059e-21
2.47028e-21
-3.78966e-21
9.29457e-21
3.1691e-20
-3.2873e-20
3.8379e-21
4.22792e-21
3.13871e-20
1.87202e-22
-2.32281e-21
3.92553e-21
-2.16132e-21
2.22547e-20
2.89712e-21
1.22503e-20
-3.43599e-20
-1.4586e-20
-1.16418e-20
-3.26893e-20
-3.2829e-20
4.11292e-21
-1.00904e-21
2.716e-21
-2.27611e-20
1.25093e-20
-5.7104e-21
6.53217e-21
-1.316e-20
-9.29127e-21
3.52152e-20
1.91892e-20
-2.27518e-21
-9.59561e-22
-2.15388e-21
-1.0668e-20
2.72013e-21
-2.17252e-21
-3.81297e-22
-3.90594e-20
-2.36372e-20
-1.69329e-20
2.01744e-21
-7.39545e-21
2.35453e-20
6.13639e-21
-9.1671e-22
-1.79005e-20
-4.60951e-20
-2.74189e-20
-1.19904e-21
-7.53667e-20
4.25841e-20
-6.09461e-21
-4.25764e-20
1.2286e-21
-4.30474e-22
-3.45053e-20
-2.58549e-20
3.88843e-21
4.27889e-21
1.49149e-20
3.70733e-20
4.95238e-21
-6.80214e-21
3.7012e-21
-1.32351e-21
3.66908e-20
1.40167e-21
-1.2988e-20
2.17229e-20
4.76574e-21
-9.50401e-21
-4.00768e-20
5.45273e-21
6.69428e-21
-2.46526e-20
7.85996e-22
-1.05704e-20
-8.00272e-20
3.16434e-20
3.49412e-20
1.11571e-20
-1.28296e-20
2.2182e-20
-1.03294e-20
-1.3178e-20
2.68031e-20
1.58324e-21
-5.47437e-20
2.70739e-20
3.11502e-20
8.19136e-21
3.22741e-20
-9.46153e-21
3.09601e-21
-4.72243e-21
-3.66894e-20
-2.90868e-21
2.35289e-20
-3.34687e-20
2.9786e-20
-1.15284e-20
-4.45046e-21
2.63559e-20
-1.6247e-21
3.97192e-20
-1.22114e-20
-2.47254e-20
3.35585e-21
4.23196e-21
-2.46182e-21
3.27958e-20
4.42317e-21
1.89219e-21
1.67494e-21
3.34322e-20
-4.46837e-20
3.49993e-21
3.49465e-20
-3.99058e-20
1.33546e-20
1.09275e-20
5.6533e-20
2.77211e-22
-7.91228e-21
3.48291e-21
-3.18182e-20
-6.04687e-21
-3.58385e-20
-1.4091e-20
-6.07107e-20
-6.26683e-20
2.7755e-20
1.3142e-20
1.14287e-22
-4.77036e-21
4.65762e-20
-1.6671e-20
-4.75169e-21
-5.64661e-20
-5.57574e-21
1.5309e-21
5.61742e-21
1.57169e-20
-7.74895e-21
-9.43841e-22
2.61468e-20
-2.79547e-20
-2.4859e-20
-3.5858e-20
-4.94416e-21
-2.10881e-20
-8.65989e-23
2.59568e-20
2.53656e-20
2.58657e-20
-6.25296e-21
-7.53692e-22
2.61218e-21
1.85571e-22
-3.14994e-20
-4.95608e-21
-2.78439e-20
3.09513e-21
-4.55465e-21
6.38345e-21
1.40187e-21
1.02757e-20
-2.47715e-21
3.82275e-20
5.40386e-21
2.18598e-21
-4.98956e-21
2.33385e-20
-3.11802e-20
-6.46906e-23
3.17583e-21
2.12086e-20
3.74547e-20
-2.55254e-20
7.72264e-21
-4.2633e-21
4.38867e-21
6.47465e-21
9.25787e-22
-5.46236e-21
3.47921e-21
-7.86998e-21
3.97097e-20
-6.11926e-22
-2.03029e-21
1.89394e-20
-4.12305e-21
-8.26426e-21
2.65037e-21
-3.42349e-22
9.27154e-22
-7.0808e-22
4.855e-21
-1.65155e-21
-2.07864e-20
3.0186e-21
2.16588e-21
-2.03818e-20
1.2309e-20
-2.63223e-21
2.28141e-20
-1.64464e-21
-9.55948e-21
1.01054e-20
-7.91893e-21
2.89947e-20
-3.11707e-21
-1.22409e-22
9.55916e-21
2.68828e-21
-2.29438e-20
2.32298e-21
-6.97867e-22
-2.1359e-21
2.43413e-21
1.81948e-21
2.88934e-22
1.10991e-20
7.41714e-21
-3.17465e-21
4.15635e-21
-4.80421e-21
5.54567e-21
1.66861e-20
-7.10321e-22
4.32158e-20
-8.24525e-22
3.06213e-20
3.04965e-20
2.80784e-20
6.05835e-20
-2.91135e-20
-4.23442e-21
-5.81515e-20
-9.93689e-21
1.10078e-20
-2.63227e-20
-3.50171e-21
4.45712e-21
-4.37068e-21
-4.57841e-20
-1.83658e-20
1.02911e-20
-3.50523e-20
-1.72805e-20
-5.21276e-21
3.48661e-20
5.1631e-21
-4.27889e-21
-1.08581e-20
-2.80884e-20
6.9896e-21
-1.43911e-20
-2.8901e-20
5.40198e-21
5.76429e-21
-2.60594e-20
-1.45819e-20
-8.40192e-21
-3.99338e-21
3.98284e-21
3.65958e-20
-2.97411e-20
1.2486e-20
-3.208e-20
4.57948e-23
-4.2897e-20
-1.32632e-20
-2.34543e-20
-5.32904e-21
1.40089e-20
1.08033e-20
3.18657e-21
2.97097e-20
-1.18102e-20
-6.47963e-20
-3.63512e-20
2.73313e-21
1.10681e-20
3.56175e-21
-7.60823e-20
-2.3844e-20
3.46584e-21
-8.294e-22
-4.83096e-21
2.02957e-20
5.81292e-21
1.68603e-21
-2.91612e-20
3.58223e-20
3.59868e-21
-1.59007e-20
-2.22775e-20
3.67959e-20
3.82916e-20
3.70201e-20
-3.08665e-21
-1.0955e-20
2.38259e-20
-5.21031e-21
-3.92279e-20
-1.54327e-21
-4.69115e-21
-2.36195e-21
3.00575e-20
-1.47064e-20
3.48852e-20
-1.08883e-21
6.83856e-21
8.47958e-21
-4.54863e-21
3.61984e-20
-1.34745e-20
4.67493e-20
-4.51377e-21
2.26376e-21
-3.32965e-21
-3.50172e-20
8.28086e-21
-3.10421e-20
2.67074e-21
-2.43382e-20
2.72644e-20
1.53978e-21
5.46201e-21
1.03572e-20
-2.15164e-20
-6.27706e-20
2.15169e-21
-3.8509e-21
6.80633e-20
1.71609e-21
-3.88297e-21
3.79515e-21
1.10819e-20
-4.36729e-22
2.19212e-20
-4.7214e-21
-8.19354e-23
4.13946e-20
-3.29942e-20
3.45089e-20
-4.64401e-21
6.91896e-22
-1.33412e-20
-1.42683e-20
-4.39595e-21
8.87106e-21
-3.89883e-20
9.61867e-21
-6.20186e-21
-1.63605e-20
-6.62636e-20
2.75874e-20
2.42608e-21
-3.41954e-20
-2.51886e-20
-7.96542e-21
-1.0224e-21
-3.54642e-23
5.41315e-21
-1.74718e-20
7.11091e-22
-5.11767e-21
-3.71053e-20
-1.74249e-21
2.24276e-20
3.44793e-21
-3.03196e-20
3.82683e-20
-1.6007e-20
-2.33454e-20
-3.39081e-20
3.58173e-20
-2.13299e-20
5.39218e-21
3.62007e-21
-9.0087e-21
-1.8722e-20
-1.73817e-21
-3.2688e-20
4.41947e-21
1.96495e-20
3.41188e-21
2.37967e-20
-3.2841e-20
-1.06985e-21
1.14104e-21
-1.85007e-21
-4.58949e-20
2.29958e-22
-4.31784e-20
9.70591e-22
3.38472e-20
-3.00354e-20
-1.12738e-20
2.658e-21
2.51992e-20
6.80075e-21
-3.13363e-20
-3.26232e-21
-6.30261e-21
1.20206e-21
-3.62709e-21
6.31927e-21
-4.53345e-21
2.27777e-20
-9.95561e-21
3.2937e-20
1.00799e-20
6.57979e-20
-9.75834e-21
3.70848e-21
3.91444e-21
-5.54218e-20
-6.91784e-20
-2.90012e-20
2.15993e-21
-5.62366e-21
7.00216e-21
4.30397e-21
8.08219e-22
-7.48813e-22
-2.13597e-21
-5.18138e-21
-3.53925e-20
-4.12093e-20
-2.55487e-20
3.64765e-20
-4.34606e-20
-2.64873e-20
1.51768e-20
-7.03817e-20
6.43701e-21
4.08133e-20
-3.58308e-20
5.94356e-21
2.91005e-20
-7.84007e-22
-3.5312e-20
-1.79774e-22
1.44393e-21
-3.40777e-20
1.86198e-21
3.59581e-20
3.90873e-21
-3.30045e-20
4.54438e-22
-6.15818e-21
-2.32766e-21
5.17168e-21
-2.64266e-20
2.47887e-20
2.06563e-21
-4.31263e-22
-1.11483e-20
1.20736e-21
-1.65252e-21
1.21408e-20
-2.07969e-21
-1.75818e-20
1.20659e-20
7.54604e-22
1.98906e-21
-1.77382e-20
-2.52525e-21
4.56994e-21
-3.83622e-20
1.38707e-20
3.74287e-20
1.88103e-21
4.13069e-21
2.04878e-21
1.17521e-20
3.61548e-21
1.14229e-20
-2.79674e-21
1.83747e-21
3.66902e-20
3.66132e-21
-3.09862e-20
2.19343e-20
-3.66927e-20
-1.89499e-20
4.71512e-21
-9.35036e-22
-4.46225e-20
-4.68314e-21
2.50503e-20
-7.78628e-20
1.44713e-20
-2.02784e-21
-4.99624e-22
-4.04814e-20
-3.03917e-21
1.16838e-21
6.10226e-21
5.16946e-21
9.18497e-21
-2.2942e-20
2.66017e-20
-1.23484e-20
-1.3492e-21
-3.5323e-20
2.40283e-21
2.92292e-20
1.36824e-21
1.37212e-20
2.6007e-20
-8.37834e-21
-7.57258e-20
2.78382e-20
-2.8691e-20
-1.20046e-20
3.20257e-21
6.65345e-21
-1.83614e-21
3.9463e-21
-6.65202e-20
-2.49281e-21
-2.36318e-21
1.07204e-21
7.73112e-21
2.82242e-20
6.9233e-20
-2.60137e-20
-4.0264e-21
-7.91513e-21
4.5997e-21
-1.9793e-22
-5.03901e-21
-1.22342e-22
2.60706e-20
1.21032e-20
-3.76376e-20
-2.90072e-20
-5.76423e-22
1.33014e-22
-1.56467e-21
3.97317e-20
2.65607e-21
1.35634e-21
3.05961e-21
7.77058e-21
-1.56436e-20
-5.84172e-21
-1.12912e-20
-7.95675e-21
-8.26304e-23
-3.69218e-21
-1.3951e-21
1.88518e-20
1.25142e-20
2.39178e-20
4.17439e-22
-1.3781e-21
2.34277e-21
-2.19169e-20
2.12265e-20
-1.23501e-20
6.10059e-23
1.24705e-20
-4.47753e-20
2.15898e-21
-1.3988e-20
2.24152e-20
-1.00755e-20
2.94505e-20
-1.0357e-20
1.76255e-20
1.7886e-21
2.46794e-21
-1.075e-22
7.12342e-22
-7.15125e-22
-7.55681e-20
3.76905e-21
2.4505e-21
1.73442e-21
-4.97773e-20
4.3522e-21
3.51342e-20
1.47525e-21
-5.80373e-21
1.25195e-21
1.28728e-20
-3.14356e-20
-2.08747e-21
-1.19575e-20
-1.06633e-20
-3.61038e-20
-1.45218e-20
3.61925e-21
2.11558e-20
3.94088e-21
3.84864e-20
-5.67743e-20
1.84811e-20
-5.35154e-21
-1.02926e-21
-1.39175e-20
2.25536e-21
9.89612e-22
2.91604e-21
-2.99114e-20
-1.10117e-20
1.28877e-20
-3.14451e-20
-6.4064e-21
1.09946e-20
-9.2114e-21
-2.84838e-21
-2.41989e-20
-3.92374e-20
5.25259e-21
-4.38814e-21
6.04596e-20
-5.16012e-22
2.72786e-21
-3.06429e-21
-1.11844e-20
1.0249e-21
2.16297e-20
1.17741e-21
-4.24707e-20
5.98415e-21
-3.28423e-20
2.61208e-20
-6.65945e-20
-3.5864e-20
3.8266e-20
9.87075e-21
-1.77561e-21
2.98613e-20
-2.9673e-20
1.20128e-22
1.1283e-21
-3.96082e-21
3.96773e-20
-1.40304e-21
-5.40492e-21
5.94874e-21
-3.76582e-20
-2.87075e-21
-1.79172e-20
-2.48579e-21
-1.69174e-21
-2.2267e-20
1.39041e-20
2.70762e-20
-4.82933e-21
-2.19303e-20
3.85623e-20
-1.89886e-20
3.48825e-20
-3.68646e-20
5.73126e-20
1.57858e-20
-2.84434e-20
3.10826e-21
2.28702e-22
-5.47933e-21
3.42889e-20
-4.21808e-21
3.0006e-20
-9.36262e-21
-4.37438e-20
2.58728e-20
4.13641e-21
-2.50526e-20
2.54341e-20
4.80285e-20
9.38638e-21
1.09583e-20
-5.11735e-21
2.29527e-21
-3.02846e-20
5.42687e-21
-2.65339e-20
-7.24416e-21
3.95807e-21
-6.5357e-20
2.47662e-20
-6.30102e-20
2.59497e-20
5.72947e-21
3.03258e-20
3.20515e-21
-2.87593e-20
-3.25217e-20
2.01933e-21
3.3721e-20
8.3913e-21
4.9057e-21
1.04059e-20
4.92622e-21
-2.72411e-20
-2.55502e-20
-4.73931e-21
-7.48581e-22
-9.5717e-21
1.84506e-21
3.03697e-21
4.76188e-22
-1.02209e-20
-6.08928e-21
-5.0902e-21
3.42328e-20
2.6653e-21
-3.67506e-22
-4.09514e-21
4.01522e-22
-3.13472e-20
3.36531e-20
2.41443e-21
6.18099e-20
-2.53824e-20
5.71186e-21
5.19091e-22
-1.03497e-21
4.87222e-21
1.10914e-20
2.73289e-21
-2.5473e-21
-3.54869e-20
-3.86757e-20
2.23745e-20
3.02647e-21
2.25822e-21
9.46601e-21
-3.40908e-20
1.43918e-20
-5.45204e-21
2.41778e-21
-1.95134e-20
5.7487e-21
-2.40923e-21
6.56462e-21
-3.69257e-20
-2.49062e-21
3.35564e-20
-3.12682e-21
-9.05788e-21
-2.19013e-20
-7.51251e-21
-2.17339e-20
-1.19717e-21
-2.20626e-20
-3.44063e-21
-1.10342e-21
-9.07403e-21
-3.11347e-20
-7.31053e-22
-2.66085e-20
-2.99048e-20
-1.13712e-20
-5.69609e-22
2.49152e-20
3.62128e-20
-4.58607e-20
9.15889e-22
3.25086e-21
2.55192e-21
-1.3645e-20
-7.7773e-20
-3.7752e-20
-3.54609e-20
-1.73591e-21
3.11868e-20
-5.80843e-21
-1.42419e-20
4.22034e-21
4.72045e-21
-7.54465e-21
-1.04927e-20
1.12325e-20
-9.9492e-21
1.09645e-20
-2.47652e-21
-1.05995e-21
-1.13092e-21
-4.76668e-21
-1.02745e-20
8.03674e-22
2.06031e-20
-9.07326e-21
-4.12627e-20
-2.50191e-20
2.01676e-21
-3.37344e-20
-8.72123e-21
2.08939e-21
8.51251e-21
3.38499e-20
9.47686e-22
-1.28285e-20
3.44737e-20
2.7847e-20
-3.35795e-20
3.45938e-21
2.68844e-20
1.6459e-21
-3.38419e-20
2.85561e-20
3.11859e-20
7.77909e-21
-7.44605e-22
4.75372e-21
3.20044e-20
-3.65132e-20
3.24371e-20
9.27368e-21
-6.54188e-21
-3.39097e-20
9.6519e-21
-1.27558e-20
2.78882e-21
3.59197e-20
8.83064e-21
3.19673e-20
-3.23284e-20
4.24918e-21
6.71833e-21
2.76843e-20
-3.74957e-20
-1.68671e-22
2.97239e-20
-5.15131e-20
-2.58155e-20
3.56553e-20
4.47183e-21
-3.23565e-20
2.03911e-20
1.32172e-20
4.36998e-21
9.67763e-22
3.49122e-20
8.1081e-22
-3.01229e-20
-1.76127e-20
1.56702e-20
-4.19105e-21
5.47461e-21
-2.1544e-21
3.92082e-20
4.15945e-21
-2.95681e-20
3.6642e-20
6.17297e-21
1.36126e-20
-4.60876e-20
3.54831e-20
3.13352e-21
-4.85769e-20
1.64507e-21
7.10632e-21
2.20422e-20
-2.52082e-20
-4.12417e-20
-2.35379e-20
5.50545e-20
2.19812e-20
8.24608e-21
-8.04824e-22
2.85372e-21
-2.07088e-20
1.4987e-20
1.42814e-20
8.18638e-21
-9.19856e-21
6.95419e-20
2.57489e-20
2.87471e-21
-4.43518e-20
-3.04791e-20
2.78029e-21
2.42383e-20
-3.52795e-21
-3.57812e-21
3.92736e-21
-4.121e-20
2.5548e-21
-1.22323e-20
-2.33429e-21
1.71623e-20
3.28648e-20
2.76687e-20
2.73315e-21
-3.93911e-20
3.83474e-22
2.88737e-21
2.02664e-20
-1.2091e-21
1.8723e-21
-2.37218e-20
-8.39426e-23
-9.35787e-21
3.59039e-21
3.14747e-20
6.42995e-21
3.16775e-21
3.18822e-20
3.338e-21
-3.09292e-20
-8.23389e-21
9.91245e-21
3.42135e-21
-8.4223e-21
3.02675e-21
3.78345e-20
-8.71647e-21
-2.28551e-20
-3.34216e-20
-1.72855e-20
-2.95661e-22
1.33988e-22
2.29684e-21
-1.9266e-20
2.04524e-20
-1.1582e-20
2.806e-21
-3.65954e-20
-9.17046e-21
-1.15559e-20
1.93756e-20
-3.26366e-20
7.28896e-21
-2.1467e-20
2.26502e-20
3.85042e-21
6.56082e-20
-2.95265e-21
1.23355e-20
7.25221e-21
2.26407e-22
3.05096e-21
2.25877e-20
1.69108e-22
7.56631e-21
5.38988e-21
2.69852e-20
3.56524e-20
6.14737e-21
-4.83062e-20
-7.64597e-20
2.2855e-21
-2.82644e-21
-1.52984e-21
3.24308e-20
3.11352e-20
-6.05852e-21
-2.42015e-20
4.83876e-21
8.96434e-21
-1.05226e-20
-1.78363e-20
-2.49016e-20
1.87379e-21
1.70329e-20
-3.17325e-21
3.65844e-20
-1.37345e-21
-4.19151e-21
-3.11932e-21
3.27674e-20
-4.9707e-21
9.97594e-21
-3.98567e-20
-5.25117e-21
-9.97159e-21
-8.8614e-21
-3.25917e-21
1.03892e-20
-5.47909e-21
2.81022e-20
2.84057e-20
2.54541e-20
2.36007e-20
-6.62867e-22
-7.04625e-22
4.12422e-20
1.58051e-20
-6.31108e-20
1.22286e-20
-3.17782e-20
-5.87706e-22
-2.64626e-20
3.27493e-20
1.36427e-22
-5.31633e-21
4.09685e-21
-4.93535e-21
-6.90755e-21
2.95798e-20
2.44923e-20
2.08595e-20
-4.66347e-21
2.50221e-21
1.18284e-20
4.81455e-21
-3.10837e-20
3.8625e-21
-1.81099e-20
3.99896e-20
-7.94104e-22
8.71031e-22
3.33213e-20
3.31023e-20
-4.98834e-21
2.06169e-20
1.36853e-21
1.54442e-21
1.43778e-20
-9.47081e-22
4.33317e-21
1.23177e-20
-2.1975e-20
-3.45091e-21
-2.16061e-20
2.82281e-21
2.81807e-22
-1.49056e-21
-2.54633e-20
-1.92612e-20
-6.30684e-20
-3.8241e-20
-2.99405e-20
4.65398e-21
6.56111e-21
-7.75986e-20
-1.44394e-20
-6.24108e-21
8.95082e-21
-2.43908e-20
-4.05314e-21
-9.79496e-21
1.1535e-20
2.51031e-20
-3.89557e-21
-1.371e-22
-3.07827e-20
6.39093e-20
1.4335e-20
-1.42188e-20
2.5788e-20
3.41644e-20
2.35503e-21
-6.27132e-20
5.09841e-21
-6.44294e-21
7.7042e-22
3.46957e-20
-2.48745e-21
3.63063e-21
-1.0183e-20
1.42845e-20
-1.15349e-20
3.65386e-21
-4.37e-21
-1.1246e-21
-1.06473e-20
9.02942e-21
-3.71933e-21
1.19944e-21
-2.02213e-20
-6.79186e-22
2.60127e-20
2.42242e-20
-3.19248e-20
-5.15601e-21
-1.89796e-21
-4.75955e-21
-3.60037e-20
-2.70707e-21
2.29514e-21
-2.88777e-20
6.90848e-20
-7.86296e-21
-1.91487e-21
3.88013e-20
2.71168e-21
5.17807e-20
3.22607e-20
-3.52504e-20
-3.50364e-20
1.92161e-20
2.3585e-20
3.53221e-21
-5.92331e-20
-2.49976e-21
2.271e-21
1.45049e-20
-1.97117e-22
-2.03376e-21
2.28302e-22
4.20375e-21
-3.34347e-21
2.00347e-20
-1.9496e-20
-1.52694e-21
-2.11433e-20
-3.78861e-20
-4.54779e-20
-2.69821e-22
9.98684e-21
5.58205e-21
-1.39519e-20
-1.20592e-20
-1.29754e-21
2.89074e-21
2.26473e-21
-1.13876e-20
-2.47253e-21
2.00456e-21
-4.66464e-20
6.25975e-21
1.34406e-21
3.22188e-20
6.55211e-21
-4.56797e-20
7.69e-22
2.42494e-21
-2.73503e-20
-1.64481e-21
-3.71258e-21
2.2384e-21
-2.50882e-20
1.49238e-20
3.15703e-20
1.14027e-20
2.84587e-20
-5.66789e-20
3.40556e-21
2.66768e-20
-2.90586e-20
-2.97442e-20
-3.46917e-20
2.00835e-20
-5.32534e-21
4.50632e-21
-3.74196e-21
6.35126e-20
3.20984e-20
3.05262e-21
1.05756e-20
-3.62788e-21
2.62625e-20
6.25194e-21
3.74916e-20
-3.30488e-20
3.4631e-21
5.48076e-21
-8.12604e-20
6.14629e-21
5.34496e-20
-1.33387e-20
-1.86826e-21
1.94738e-22
-3.38227e-20
-5.36536e-22
4.91673e-21
3.65958e-20
1.07297e-22
2.73279e-20
3.24627e-20
-4.98834e-21
-3.28788e-20
3.74436e-21
-3.62284e-20
-4.04995e-21
-2.7601e-20
-3.36263e-21
-6.81463e-21
2.4662e-21
-1.2533e-21
6.55893e-20
1.01193e-21
5.9e-21
-3.14139e-20
-1.17569e-21
-5.95868e-21
5.17536e-21
-3.56186e-20
-3.47193e-21
-3.80724e-20
-2.52526e-21
-1.28059e-21
3.49692e-20
-1.46093e-20
1.98792e-20
3.31395e-21
1.90599e-20
-2.97997e-20
-3.4153e-21
-2.23643e-20
-1.72316e-20
-3.27168e-20
-2.30696e-20
-9.09094e-21
-7.70696e-21
-3.22254e-20
6.86577e-21
-3.73362e-20
-1.77745e-20
-2.74469e-20
1.39692e-20
-4.45211e-20
3.71282e-20
-2.18241e-21
-7.75821e-20
2.66296e-21
2.08641e-20
-6.68859e-20
1.12305e-20
2.43159e-20
-2.8466e-20
3.39726e-20
7.12266e-21
-3.89634e-21
-2.64774e-21
2.48731e-20
-2.74582e-20
-3.53458e-20
-1.63493e-21
-4.90007e-21
1.32429e-20
3.15139e-20
7.20049e-22
8.64243e-21
-4.38828e-21
1.41344e-20
6.99297e-22
5.92676e-21
1.71673e-20
-2.87958e-20
2.70792e-20
-1.03341e-20
-2.4633e-20
-3.98676e-20
3.39075e-21
4.23466e-21
1.56155e-20
-2.59224e-21
3.22357e-20
-3.06862e-20
5.07965e-22
3.68104e-20
-8.65499e-21
-3.94278e-20
-2.50699e-20
3.22678e-21
2.07554e-20
-3.01579e-20
3.08885e-21
3.77857e-21
5.15894e-21
-9.59881e-21
8.65946e-21
1.84084e-21
-3.10429e-20
-1.87115e-21
6.10424e-20
5.83162e-21
7.53148e-21
-3.59183e-20
3.10161e-20
-5.55913e-21
-8.23264e-21
-2.33374e-20
-3.04151e-20
3.27811e-20
1.44326e-20
-3.42325e-20
-2.2014e-20
-2.21454e-20
-1.49694e-21
2.70704e-21
-2.32057e-20
-1.4339e-20
-1.99856e-21
1.87982e-21
-2.2949e-21
2.75227e-21
-4.66445e-21
3.51774e-20
7.05077e-21
-2.84423e-21
3.64229e-20
8.74102e-22
2.1783e-21
-8.60816e-21
-1.79775e-21
-1.00568e-20
-2.5075e-20
-3.37534e-20
2.30146e-21
-5.62591e-20
1.01859e-20
6.64367e-21
2.48755e-20
6.79919e-22
3.67861e-20
-2.80574e-20
-2.73638e-20
-9.95121e-22
-5.53828e-21
-5.66969e-20
3.80836e-21
-1.15874e-20
1.02169e-20
2.24639e-20
-1.07775e-20
-5.11187e-21
-6.24602e-21
-2.99518e-20
1.13342e-20
-2.5645e-20
-4.97536e-21
3.80405e-21
-1.43241e-20
1.91825e-20
-2.69732e-20
8.60763e-21
-4.42226e-21
2.928e-20
-8.93879e-21
-4.46718e-21
-4.03466e-20
3.14657e-21
-4.31737e-20
-2.7972e-20
7.73415e-21
-7.26631e-20
-7.44966e-22
4.19903e-21
3.4767e-20
1.48113e-20
-2.39409e-20
-1.39392e-20
2.79578e-20
2.0335e-22
-3.18347e-20
-8.40229e-22
-4.44993e-21
2.94174e-22
-1.50019e-22
-4.2337e-20
9.7612e-22
-5.29166e-21
5.45813e-21
-2.95785e-21
9.52657e-21
1.76075e-21
3.00778e-20
2.38692e-20
3.01346e-22
6.60811e-21
-2.74164e-20
2.7376e-20
6.1267e-20
3.05748e-20
4.32254e-21
-1.34232e-21
8.80913e-21
-8.37204e-23
2.74261e-21
6.13211e-21
3.37165e-21
-1.32463e-20
-3.66088e-20
-4.62778e-20
-6.48076e-21
-2.28122e-21
-1.39218e-21
3.94672e-21
1.26464e-20
-2.97794e-21
-1.33294e-20
1.25392e-21
-5.38587e-21
-7.45467e-22
-5.22958e-21
-7.87904e-21
-6.1599e-20
2.54613e-20
1.40543e-20
-1.8321e-20
-1.22093e-21
-2.2517e-20
3.47467e-22
-1.89114e-20
-1.253e-20
-6.71403e-20
1.35198e-20
-4.04829e-21
-9.55855e-21
1.37974e-21
-8.09945e-21
1.83054e-20
6.40816e-20
7.16158e-21
-3.33034e-20
6.52042e-21
6.31305e-22
6.16761e-21
-4.0727e-21
-4.84429e-21
-4.52426e-21
2.85609e-21
-1.28015e-21
2.05813e-21
-3.35828e-21
7.82107e-21
2.50359e-20
-4.29691e-22
-4.73493e-21
-5.115e-23
-2.75566e-21
-3.83383e-20
4.49613e-21
-7.29203e-20
3.78313e-21
-4.83059e-21
-1.24834e-20
6.81628e-20
-4.07364e-21
2.68925e-20
-2.07668e-20
4.90816e-21
-2.80461e-20
-9.5819e-21
3.78627e-21
2.8724e-20
4.05339e-20
6.29309e-21
2.26684e-21
-3.65913e-20
-4.41991e-21
-3.27866e-20
2.92241e-21
-1.71214e-20
-3.71449e-20
3.49647e-22
9.65335e-22
2.35498e-20
1.19757e-20
3.65166e-20
7.65353e-21
3.42585e-22
-3.73367e-21
-1.44658e-21
2.82123e-21
2.13246e-20
9.66577e-21
-2.10704e-20
2.8268e-21
2.53016e-21
-5.19515e-21
-2.22597e-20
1.18534e-20
-1.30174e-20
2.9158e-20
2.09561e-21
2.25295e-20
-1.17036e-20
-3.22497e-21
-2.14959e-22
-2.15573e-20
2.32412e-20
3.83263e-21
-3.06114e-20
-3.13622e-20
-3.2277e-20
-3.14673e-20
-2.89405e-20
-1.14131e-20
-1.87814e-22
2.75115e-21
1.91675e-21
2.20945e-20
2.87626e-20
2.66786e-21
-2.76075e-20
-1.1824e-21
-7.67287e-20
1.19622e-20
-2.48389e-20
7.81983e-21
3.38881e-20
-3.64605e-20
-4.11172e-20
6.41835e-21
4.12489e-21
6.06518e-20
1.64426e-20
1.23446e-20
-2.49304e-20
2.80946e-20
3.61949e-21
-2.03197e-21
2.16336e-20
2.82108e-20
1.49887e-21
3.13457e-21
3.56766e-20
-4.80932e-21
-1.79621e-20
8.00031e-21
2.58173e-21
-2.61853e-20
-3.10756e-20
-6.0902e-21
-7.02926e-20
6.53812e-21
4.05248e-20
1.52942e-20
-3.19416e-21
1.33463e-22
-1.0665e-20
-3.61325e-20
6.04597e-20
3.68809e-20
-5.17514e-22
2.79712e-20
3.15225e-20
3.00039e-20
-1.21321e-21
2.54177e-20
-3.68564e-20
-2.12088e-21
1.43118e-21
-3.39967e-21
-9.32343e-23
-3.37906e-20
6.53736e-22
-4.168e-20
4.00322e-20
-3.84724e-21
1.18179e-20
2.50221e-20
-3.21092e-20
4.18812e-21
1.13655e-20
-2.91086e-21
-5.21166e-22
-2.93961e-21
-2.005e-21
-2.34081e-21
-5.81728e-21
1.07258e-20
-3.6863e-21
-1.82734e-20
6.31648e-20
1.28277e-20
2.22455e-20
2.30053e-20
5.70589e-20
-1.92515e-20
-1.8287e-20
3.66128e-21
7.44584e-22
2.51084e-20
-9.23009e-21
1.528e-20
1.91452e-21
2.47485e-20
-1.87467e-20
-8.63332e-21
-1.65534e-20
-3.01155e-20
-2.01829e-20
-3.1472e-20
1.74102e-20
-1.63045e-21
-6.41562e-21
-5.80624e-21
-5.30703e-21
5.4424e-21
-2.62318e-23
4.36468e-21
3.50994e-20
-4.03909e-21
-3.09708e-20
5.39396e-21
-1.59078e-20
-1.79463e-20
3.15004e-21
3.34836e-20
2.66911e-20
-4.74576e-20
8.40009e-21
3.53222e-20
-3.19611e-21
2.52971e-20
-1.85492e-21
-1.48748e-21
-7.37275e-21
3.47718e-21
2.68668e-22
-2.63451e-20
-2.11847e-21
7.10779e-21
-4.57485e-21
-1.24834e-20
-2.64745e-20
-7.61397e-22
2.58245e-21
-1.1484e-20
8.35439e-22
4.39858e-20
-1.1524e-21
2.18664e-21
-2.43618e-20
-2.43824e-20
-3.03301e-20
1.39966e-21
1.2729e-20
8.23838e-22
-1.77931e-21
-2.77018e-20
2.49054e-20
2.11799e-20
-2.11007e-20
2.72568e-21
-2.10125e-20
1.24359e-20
-2.5777e-20
3.2784e-20
-4.70444e-20
-1.92832e-20
-2.06424e-21
-1.0484e-20
8.41449e-22
2.16088e-20
-2.24573e-20
3.7803e-21
1.67063e-20
-2.05573e-20
2.17065e-20
6.23816e-21
-5.57112e-22
-1.25623e-20
4.04356e-20
-1.08684e-20
1.02105e-20
3.16525e-20
4.76211e-22
4.06349e-20
1.27332e-20
2.65431e-21
1.02348e-20
-1.14878e-20
1.9389e-21
1.18614e-20
3.83168e-23
2.81343e-21
4.22151e-21
-1.38692e-20
-3.04178e-20
6.04754e-21
7.29961e-21
2.79783e-20
6.02208e-20
1.58349e-20
1.25069e-21
-6.21746e-21
3.41782e-20
5.88536e-20
-8.21478e-21
-1.54087e-20
-2.68813e-20
-3.73897e-20
2.02848e-21
-1.51598e-20
-3.16252e-20
1.11308e-20
-6.99335e-20
-2.65076e-20
4.26354e-21
-3.75936e-21
5.1059e-21
-1.55998e-20
-6.983e-21
5.8103e-21
3.12224e-20
-3.58558e-20
3.26693e-20
-3.89543e-21
2.02192e-21
-2.6542e-20
-6.26008e-20
-3.47903e-20
-1.14659e-21
4.25202e-20
-2.84289e-21
-1.30774e-20
2.22874e-21
-3.3404e-21
-1.4962e-21
-3.11258e-21
-3.00869e-20
-3.96787e-21
-5.69094e-22
1.17724e-20
-3.12456e-20
-3.32695e-21
-3.9436e-20
4.89032e-21
-2.59172e-20
1.69582e-20
3.08098e-20
1.02604e-20
-3.14985e-20
-2.50403e-20
4.58508e-21
-1.02793e-20
7.79966e-22
-2.31909e-21
3.73235e-20
-1.26871e-21
-7.48517e-20
-1.55384e-20
2.72882e-20
2.48495e-21
4.65141e-21
1.66369e-21
2.88319e-21
-3.16064e-21
-1.86818e-20
6.80437e-21
-4.65625e-20
2.22495e-20
7.45342e-21
-1.92853e-20
-3.40075e-20
-1.92016e-20
-2.0761e-20
-2.06479e-21
3.6142e-20
3.41537e-20
1.42539e-20
4.24308e-20
4.5197e-21
-4.02783e-21
-4.39204e-20
-2.53846e-22
-1.80168e-20
5.59718e-20
-5.04743e-20
2.46434e-20
7.57828e-21
-3.52312e-22
-3.4524e-20
-1.05635e-21
-4.94261e-21
2.75917e-20
4.19098e-20
-4.26599e-20
1.24571e-20
-1.04524e-20
2.53735e-20
6.07748e-21
1.54196e-21