/*--------------------------------*- C++ -*----------------------------------*\
  =========                 |
  \\      /  F ield         | OpenFOAM: The Open Source CFD Toolbox
   \\    /   O peration     | Website:  https://openfoam.org
    \\  /    A nd           | Version:  13
     \\/     M anipulation  |
\*---------------------------------------------------------------------------*/
FoamFile
{
    format      ascii;
    class       volScalarField;
    location    "2000";
    object      nut;
}
// * * * * * * * * * * * * * * * * * * * * * * * * * * * * * * * * * * * * * //

dimensions      [0 2 -1 0 0 0 0];

internalField   nonuniform List<scalar> 
12225
(
6.72304e-06
1.28258e-05
1.56768e-05
1.69064e-05
1.34763e-05
3.17898e-05
3.85733e-05
2.83838e-05
1.98616e-05
3.39953e-05
2.25961e-05
1.84067e-05
3.06848e-05
2.8616e-05
3.95035e-05
3.93364e-05
3.12766e-05
2.05718e-05
2.40903e-06
3.58533e-06
1.34029e-06
0.00067559
5.1991e-08
0.000121901
6.89514e-09
2.52193e-05
1.02582e-09
1.23332e-05
2.37303e-10
4.98851e-10
1.3033e-09
4.41856e-09
8.19969e-09
1.78313e-08
5.25591e-08
9.42073e-08
1.80716e-05
9.99071e-06
5.07884e-06
1.84213e-06
4.4187e-06
0.00013639
5.94998e-07
0.000275102
4.48307e-08
0.000349348
3.04432e-10
4.78704e-10
1.12874e-09
4.04672e-09
5.93494e-09
1.29374e-08
3.06574e-08
7.86771e-08
0.000172149
4.01792e-05
8.65274e-06
5.60666e-06
1.04804e-06
0.00163982
4.65504e-07
3.65358e-07
5.24048e-07
0.00012334
4.36888e-08
2.57905e-08
2.64373e-08
3.85651e-08
2.08381e-07
4.36932e-07
1.28197e-06
1.14676e-06
0.00408749
4.56013e-05
3.31141e-05
5.42006e-06
0.00179042
4.87846e-07
4.55295e-07
7.80949e-07
1.32533e-06
1.54855e-06
2.57047e-06
2.50452e-06
1.83636e-06
4.00399e-06
4.81069e-06
6.89505e-06
9.59484e-06
1.06506e-05
0.00417994
0.00027085
7.70965e-05
6.41679e-05
6.36953e-05
0.00232212
9.5976e-07
9.95157e-07
1.56221e-06
4.39432e-06
1.12876e-05
1.15566e-05
1.61203e-05
2.21612e-05
2.7066e-05
3.08532e-05
3.6582e-05
3.96831e-05
0.000595023
0.00035411
0.000245458
0.000202039
0.000179079
0.000203318
5.75487e-05
4.08293e-05
4.05249e-05
4.30794e-05
5.71226e-05
7.19027e-05
7.32374e-05
7.56306e-05
8.47586e-05
9.62256e-05
0.000109371
0.00011667
0.000721566
0.000298688
0.000369083
0.000401112
0.00036306
0.000361673
0.000298429
0.000247625
0.000217345
0.000201592
0.000234076
0.000219683
0.000217344
0.000235529
0.000256835
0.000245071
0.000244462
0.000248647
0.00140688
0.000433426
0.000530365
0.000597904
0.000596842
0.000572435
0.000547523
0.000514787
0.000484634
0.00048002
0.000488002
0.000481788
0.000465739
0.000454238
0.000442676
0.000429928
0.000424073
0.000414733
0.000982491
0.000743969
0.000781755
0.000770123
0.000758629
0.000733287
0.000718338
0.000700568
0.000684086
0.000679319
0.000677055
0.000664603
0.000646434
0.000627581
0.000610387
0.000594474
0.000582521
0.000573332
0.000874544
0.00084483
0.000847424
0.000844481
0.000838306
0.000822025
0.000812193
0.000801847
0.00079267
0.000788324
0.000782945
0.000772298
0.000759133
0.000745217
0.000732279
0.000720039
0.000709764
0.000701401
0.00085531
0.000852493
0.000851132
0.00084939
0.000846921
0.000843521
0.000839861
0.000835435
0.00083222
0.000827582
0.000823927
0.000818007
0.000811034
0.000803155
0.000795754
0.000788297
0.000781852
0.000776327
0.000851976
0.000851158
0.000850176
0.000849365
0.000848124
0.000847071
0.000845989
0.000844812
0.000843489
0.000841707
0.00084032
0.000837596
0.000835636
0.000832544
0.000829162
0.000825907
0.000822808
0.000819344
0.000851567
0.000850724
0.000849894
0.00084913
0.00084834
0.000847578
0.000846882
0.000846201
0.000845547
0.000844751
0.000843911
0.000842819
0.000841777
0.000840459
0.000839338
0.000837923
0.000836946
0.000835529
0.000851541
0.000850673
0.000849862
0.00084908
0.000848348
0.000847631
0.000846969
0.00084632
0.000845727
0.000845116
0.000844538
0.000843914
0.000843327
0.000842689
0.000842113
0.000841491
0.000840965
0.000840382
0.000851539
0.000850673
0.000849856
0.000849073
0.000848335
0.000847627
0.000846958
0.000846315
0.000845707
0.000845122
0.000844564
0.000844024
0.000843507
0.000843005
0.000842526
0.000842062
0.000841622
0.000841195
0.000851537
0.000850673
0.000849852
0.00084907
0.000848328
0.000847619
0.000846946
0.000846303
0.00084569
0.000845104
0.000844545
0.000844009
0.000843498
0.000843007
0.00084254
0.000842089
0.000841661
0.000841248
0.000851539
0.000850677
0.000849858
0.000849077
0.000848335
0.000847627
0.000846954
0.00084631
0.000845696
0.000845109
0.000844549
0.000844012
0.0008435
0.000843009
0.00084254
0.00084209
0.00084166
0.000841248
0.000851537
0.000850674
0.000849851
0.000849069
0.000848325
0.000847616
0.000846939
0.000846294
0.000845679
0.00084509
0.000844528
0.000843989
0.000843475
0.000842982
0.000842512
0.00084206
0.000841629
0.000841215
0.000851534
0.000850676
0.000849851
0.00084907
0.000848323
0.000847615
0.000846936
0.000846288
0.000845667
0.000845073
0.000844505
0.000843963
0.000843445
0.000842951
0.000842477
0.000842024
0.000841587
0.000841171
0.000851508
0.000850704
0.000849848
0.000849059
0.000848278
0.00084758
0.000846837
0.000846123
0.000845404
0.000844715
0.000844053
0.000843442
0.000842852
0.000842328
0.000841796
0.00084133
0.000840824
0.000840408
0.000851418
0.000850937
0.000849791
0.000848792
0.000847949
0.000847045
0.00084549
0.000843862
0.000842071
0.000840269
0.000838699
0.000837156
0.000835904
0.000834765
0.0008337
0.000832913
0.000831955
0.000831566
0.000852715
0.000852001
0.000851099
0.000852294
0.000849402
0.000843094
0.00083377
0.000824585
0.000815812
0.000807534
0.000800602
0.000794126
0.000787308
0.000781866
0.000778236
0.000771994
0.000770818
0.000765556
0.000851987
0.000850488
0.000852812
0.000848764
0.000825933
0.000791407
0.000750014
0.000716847
0.00068833
0.000666661
0.000650355
0.000631932
0.000619833
0.000609892
0.000605771
0.000594865
0.000589072
0.000586004
0.000853761
0.000855454
0.000856112
0.000810952
0.000619619
0.000554419
0.000480476
0.000422934
0.000379967
0.000351794
0.000331681
0.000317404
0.000312235
0.000310468
0.000309399
0.000312262
0.000308937
0.000310961
0.000863315
0.000835988
0.000840175
0.00048128
0.000420695
0.000199948
0.000183543
0.00016686
0.000149944
0.000122973
9.9014e-05
9.14854e-05
9.17082e-05
9.48089e-05
9.55938e-05
0.000101093
0.000105435
0.000105248
0.000848539
0.000638933
0.000483097
0.00019202
0.000115205
7.18265e-05
5.17629e-05
3.23286e-05
2.42342e-05
1.01938e-05
1.09887e-05
8.07178e-06
7.07045e-06
6.96161e-06
8.73219e-06
1.19056e-05
1.25667e-05
1.57288e-05
0.000827721
0.00049464
0.000155513
8.43593e-05
2.14761e-05
1.69839e-05
1.12527e-05
8.50526e-06
4.33703e-06
5.71061e-06
5.43749e-06
5.13023e-06
4.51679e-06
5.34229e-06
7.00652e-06
1.16339e-05
1.27169e-05
1.71194e-05
0.000251157
0.00010397
5.29988e-05
3.78496e-05
1.7217e-05
1.97178e-05
1.88507e-05
1.58701e-05
1.4729e-05
1.3627e-05
1.46277e-05
1.60825e-05
1.78403e-05
2.21751e-05
2.65453e-05
2.97322e-05
3.60192e-05
4.00144e-05
1.22643e-05
1.68989e-05
1.9807e-05
2.14177e-05
2.21317e-05
2.22454e-05
2.21552e-05
2.17541e-05
2.12603e-05
2.07552e-05
2.02778e-05
1.98141e-05
1.94e-05
1.90424e-05
1.87541e-05
1.85336e-05
1.8361e-05
1.8266e-05
1.31224e-12
1.48483e-10
7.6034e-10
3.0004e-09
1.00538e-08
3.04493e-08
8.16612e-08
1.65498e-07
2.72476e-07
3.87333e-07
4.92625e-07
5.76159e-07
6.33627e-07
6.60551e-07
6.55843e-07
6.30576e-07
5.87149e-07
5.135e-07
4.35284e-07
3.71278e-07
3.11672e-07
2.54599e-07
1.98579e-07
1.46705e-07
9.89367e-08
6.02897e-08
3.32083e-08
1.70544e-08
8.64092e-09
4.55014e-09
2.58772e-09
1.68481e-09
1.42664e-09
2.22805e-09
4.39629e-09
1.00642e-08
6.04596e-08
1.25401e-07
2.68044e-07
3.86028e-07
4.04761e-07
3.67695e-07
2.87079e-07
2.39749e-07
2.40012e-07
2.8168e-07
3.53218e-07
5.50289e-07
9.26746e-07
2.21518e-06
6.4948e-06
1.77907e-05
3.28694e-05
4.15491e-05
4.67677e-05
4.59334e-05
4.68468e-05
4.22593e-05
3.75498e-05
3.25857e-05
3.3439e-05
3.48837e-05
3.65587e-05
2.86002e-05
3.32169e-05
3.23256e-05
3.34681e-05
3.39099e-05
3.452e-05
3.50938e-05
3.56492e-05
3.62064e-05
3.67496e-05
3.72906e-05
3.78234e-05
3.83533e-05
3.88778e-05
3.93998e-05
3.99179e-05
4.04339e-05
4.09471e-05
4.14587e-05
4.19682e-05
4.24766e-05
4.29832e-05
4.34893e-05
4.39938e-05
4.44979e-05
4.50009e-05
4.5504e-05
4.60063e-05
4.65073e-05
4.70066e-05
4.75039e-05
4.79992e-05
4.8492e-05
4.89825e-05
4.94702e-05
4.99555e-05
5.04376e-05
5.09179e-05
5.13976e-05
5.18821e-05
5.23787e-05
5.28784e-05
5.33812e-05
5.38902e-05
5.44062e-05
5.49296e-05
5.54624e-05
5.6004e-05
5.65569e-05
5.71204e-05
5.76973e-05
5.82868e-05
5.88919e-05
5.95119e-05
6.015e-05
6.0806e-05
6.14828e-05
6.21803e-05
6.29012e-05
6.36463e-05
6.44193e-05
6.52224e-05
6.60598e-05
6.69339e-05
6.78438e-05
6.87834e-05
6.98011e-05
7.0776e-05
7.19123e-05
7.29574e-05
7.42362e-05
7.53526e-05
7.67113e-05
7.80614e-05
7.8259e-05
7.79897e-05
7.77036e-05
7.7404e-05
7.70896e-05
7.67625e-05
7.64233e-05
7.60728e-05
7.57125e-05
7.53406e-05
7.49607e-05
7.45705e-05
7.41727e-05
7.37646e-05
7.33516e-05
7.29274e-05
7.25e-05
7.20645e-05
7.16229e-05
7.11782e-05
7.07273e-05
7.02717e-05
6.98167e-05
6.93618e-05
6.89082e-05
6.84568e-05
6.80087e-05
6.75636e-05
6.71228e-05
6.66869e-05
6.62567e-05
6.58328e-05
6.5416e-05
6.50063e-05
6.46047e-05
6.42097e-05
6.38191e-05
6.34277e-05
6.30275e-05
6.26078e-05
6.21446e-05
6.15871e-05
6.00719e-05
6.65746e-12
1.08636e-09
1.46308e-08
7.63863e-08
3.29836e-07
1.06285e-06
2.51688e-06
4.63212e-06
7.22467e-06
1.02064e-05
1.32659e-05
1.61409e-05
1.86316e-05
2.05126e-05
2.17372e-05
2.21054e-05
2.18831e-05
2.12561e-05
1.9345e-05
1.66344e-05
1.30515e-05
9.77976e-06
6.98417e-06
4.83465e-06
3.08685e-06
1.93093e-06
1.1802e-06
7.30574e-07
4.52402e-07
2.86325e-07
1.95139e-07
1.48239e-07
1.39558e-07
1.83675e-07
3.11562e-07
4.80838e-07
3.66467e-06
7.63615e-06
1.48335e-05
1.99694e-05
2.14881e-05
2.01218e-05
1.78295e-05
1.55474e-05
1.50173e-05
1.62443e-05
1.64753e-05
1.89288e-05
2.54182e-05
3.65379e-05
4.6988e-05
5.84078e-05
6.77247e-05
7.52151e-05
8.17251e-05
9.15342e-05
0.000104251
0.000115562
0.000128395
0.000139634
0.000155174
0.000168475
0.000184305
0.000192246
0.000206359
0.00021726
0.000229176
0.000240042
0.000250654
0.000260897
0.000270736
0.000280296
0.000289554
0.000298568
0.000307365
0.000315959
0.000324387
0.00033265
0.000340777
0.000348769
0.000356647
0.000364411
0.000372077
0.000379648
0.000387135
0.00039454
0.000401873
0.00040914
0.000416346
0.000423498
0.000430603
0.000437659
0.000444669
0.00045163
0.000458539
0.000465388
0.000472169
0.000478863
0.000485444
0.000491868
0.000498072
0.000503955
0.000509387
0.000514204
0.000518914
0.000523484
0.00052796
0.000532306
0.000536536
0.000540637
0.000544605
0.000548435
0.000552121
0.000555659
0.000559041
0.000562264
0.000565321
0.00056821
0.000570924
0.00057346
0.000575812
0.000577978
0.000579952
0.000581732
0.000583314
0.000584698
0.000585882
0.000586873
0.000587705
0.000588409
0.000588827
0.000589141
0.000589019
0.000589026
0.000588655
0.000588505
0.000588006
0.000587843
0.000587541
0.000587067
0.000586423
0.000585612
0.000584638
0.000583501
0.000582263
0.000580846
0.000579343
0.000577665
0.000575935
0.000573936
0.000572031
0.000569748
0.000567585
0.000565176
0.000562664
0.000560121
0.000557442
0.000554659
0.000551842
0.00054895
0.000546006
0.000543019
0.00054
0.000536951
0.000533877
0.000530788
0.000527685
0.000524579
0.000521472
0.000518375
0.000515284
0.000512207
0.000509141
0.000506032
0.00050285
0.000499506
0.000495859
0.000491664
0.00048624
0.000470854
1.60116e-11
2.7199e-09
5.13456e-08
3.041e-07
1.13622e-06
2.66457e-06
5.76122e-06
1.00936e-05
1.55172e-05
2.17529e-05
2.84494e-05
3.51313e-05
4.12302e-05
4.6393e-05
5.04576e-05
5.30841e-05
5.47509e-05
5.52702e-05
5.43247e-05
5.18528e-05
4.77103e-05
4.23601e-05
3.5516e-05
2.84156e-05
2.17892e-05
1.59201e-05
1.10146e-05
7.40948e-06
4.78695e-06
3.08275e-06
2.08303e-06
1.53986e-06
1.24884e-06
1.3474e-06
2.1311e-06
4.41654e-06
1.70439e-05
3.61514e-05
5.28873e-05
6.12527e-05
5.93644e-05
4.90617e-05
3.96214e-05
3.82609e-05
4.41796e-05
5.14389e-05
6.03588e-05
7.3215e-05
8.48796e-05
9.73445e-05
0.00011351
0.000131506
0.00015123
0.00017314
0.00019779
0.000226632
0.000257559
0.00028816
0.00031914
0.000349393
0.000379357
0.000407078
0.000435348
0.000460322
0.000485887
0.000509175
0.000531883
0.000553482
0.000574363
0.000594527
0.000614048
0.00063305
0.000651566
0.000669673
0.000687413
0.000704823
0.000721941
0.000738787
0.000755388
0.000771757
0.000787915
0.000803869
0.000819636
0.000835222
0.000850638
0.000865892
0.000880992
0.000895943
0.000910751
0.00092542
0.000939954
0.000954347
0.000968593
0.000982683
0.000996604
0.00101034
0.00102386
0.00103714
0.00105013
0.0010628
0.00107509
0.00108696
0.00109838
0.00110946
0.00112036
0.00113101
0.00114143
0.00115158
0.00116148
0.0011711
0.00118043
0.00118946
0.00119818
0.00120657
0.00121464
0.00122235
0.00122971
0.0012367
0.00124332
0.00124956
0.0012554
0.00126085
0.0012659
0.00127054
0.00127478
0.0012786
0.00128202
0.00128503
0.00128764
0.00128984
0.00129158
0.00129296
0.00129387
0.00129447
0.00129455
0.0012954
0.00129517
0.00129495
0.00129426
0.0012932
0.00129178
0.00128998
0.00128784
0.00128536
0.00128258
0.00127947
0.00127609
0.00127239
0.00126845
0.00126415
0.00125972
0.00125486
0.00124995
0.00124467
0.00123918
0.00123352
0.00122763
0.00122156
0.00121536
0.001209
0.00120254
0.00119598
0.00118935
0.00118265
0.00117591
0.00116914
0.00116234
0.00115555
0.00114876
0.00114199
0.00113525
0.00112854
0.00112184
0.00111508
0.00110818
0.00110096
0.00109305
0.00108393
0.00107171
0.00104394
6.06622e-11
1.02752e-08
1.66826e-07
7.06639e-07
2.31575e-06
6.27442e-06
1.26442e-05
2.12476e-05
3.15459e-05
4.24966e-05
5.31684e-05
6.31789e-05
7.18833e-05
7.87922e-05
8.39406e-05
8.74999e-05
8.91646e-05
8.93395e-05
8.81526e-05
8.5631e-05
8.1481e-05
7.64819e-05
6.97017e-05
6.15705e-05
5.2256e-05
4.26632e-05
3.33798e-05
2.54277e-05
1.89527e-05
1.40405e-05
1.0185e-05
7.91664e-06
6.19877e-06
7.0804e-06
1.16696e-05
2.6422e-05
4.96406e-05
6.71259e-05
7.74972e-05
7.36571e-05
6.97899e-05
6.95346e-05
7.30313e-05
8.03605e-05
9.09246e-05
0.000105668
0.000116766
0.000134138
0.000157534
0.000181846
0.000213475
0.000247167
0.000285071
0.000325477
0.000368612
0.000413603
0.00045886
0.000503143
0.000546503
0.000588156
0.000628644
0.000666866
0.00070488
0.000740301
0.000774703
0.000807481
0.000839183
0.000869794
0.000899518
0.000928429
0.000956627
0.000984208
0.00101123
0.00103776
0.00106384
0.00108951
0.0011148
0.00113974
0.00116434
0.00118862
0.0012126
0.00123629
0.00125969
0.00128281
0.00130567
0.00132826
0.00135059
0.00137267
0.0013945
0.00141609
0.00143742
0.00145849
0.0014793
0.00149983
0.00152007
0.00154
0.00155959
0.00157882
0.00159767
0.00161611
0.00163412
0.0016517
0.00166888
0.0016857
0.0017022
0.00171834
0.00173411
0.0017495
0.00176447
0.00177903
0.00179315
0.00180682
0.00182002
0.00183274
0.00184496
0.00185667
0.00186786
0.00187852
0.00188863
0.00189818
0.00190717
0.00191559
0.00192344
0.00193071
0.0019374
0.00194351
0.00194903
0.00195397
0.0019583
0.001962
0.00196507
0.00196763
0.00196959
0.00197105
0.00197208
0.00197333
0.00197353
0.00197334
0.00197258
0.00197129
0.00196946
0.0019671
0.00196423
0.00196086
0.00195703
0.00195272
0.00194797
0.00194276
0.00193715
0.0019311
0.0019247
0.00191784
0.0019107
0.00190312
0.00189521
0.001887
0.00187847
0.00186967
0.00186063
0.00185138
0.00184195
0.00183237
0.00182266
0.00181287
0.00180299
0.00179306
0.0017831
0.00177312
0.00176315
0.00175322
0.00174331
0.00173346
0.00172362
0.00171372
0.00170365
0.00169318
0.00168182
0.00166874
0.00165163
0.00161884
2.02234e-10
3.06205e-08
3.69337e-07
1.76135e-06
6.05611e-06
1.48022e-05
2.7749e-05
4.34835e-05
6.0145e-05
7.60848e-05
9.01936e-05
0.000101375
0.000109696
0.000115832
0.000119521
0.000121407
0.000121679
0.0001205
0.000118065
0.00011453
0.000109616
0.000104077
9.72777e-05
8.93252e-05
7.99492e-05
6.94875e-05
5.83337e-05
4.76591e-05
3.83371e-05
3.08237e-05
2.48055e-05
1.98942e-05
1.97403e-05
2.59114e-05
4.40152e-05
6.77159e-05
8.25819e-05
8.94226e-05
9.20871e-05
9.43108e-05
9.88111e-05
0.000106945
0.000119451
0.000133572
0.000145373
0.000164492
0.000192953
0.00022296
0.000261213
0.000302269
0.000349648
0.000398525
0.000450739
0.000504062
0.000558501
0.000612997
0.000666711
0.000719092
0.000770122
0.000818878
0.000867097
0.000913147
0.000957967
0.00100095
0.00104259
0.00108289
0.00112204
0.00116014
0.00119732
0.00123367
0.00126928
0.00130423
0.00133857
0.00137236
0.00140563
0.00143841
0.00147074
0.00150263
0.00153409
0.00156514
0.00159578
0.00162602
0.00165587
0.00168534
0.00171442
0.00174313
0.00177146
0.00179943
0.00182702
0.00185424
0.0018811
0.00190758
0.00193368
0.0019594
0.0019847
0.00200959
0.00203405
0.00205806
0.00208161
0.00210469
0.0021273
0.00214945
0.00217115
0.0021924
0.0022132
0.00223353
0.00225337
0.00227271
0.00229151
0.00230977
0.00232747
0.0023446
0.00236114
0.00237708
0.00239241
0.00240712
0.00242118
0.00243458
0.00244732
0.0024594
0.0024708
0.00248151
0.00249155
0.00250089
0.00250955
0.00251752
0.00252479
0.00253137
0.00253724
0.0025423
0.0025465
0.00255022
0.00255326
0.00255563
0.0025576
0.00255938
0.00256017
0.00256032
0.00255979
0.00255861
0.00255676
0.00255427
0.00255115
0.00254742
0.0025431
0.00253819
0.00253271
0.00252667
0.0025201
0.002513
0.00250541
0.0024973
0.00248874
0.0024797
0.00247021
0.00246032
0.00245002
0.00243938
0.00242842
0.00241717
0.00240568
0.00239399
0.00238212
0.00237012
0.002358
0.00234579
0.00233352
0.00232122
0.00230891
0.00229662
0.00228437
0.00227214
0.00225993
0.00224766
0.00223524
0.00222242
0.00220875
0.00219319
0.00217337
0.00214043
6.39828e-10
7.61092e-08
9.18525e-07
4.64164e-06
1.5472e-05
3.31761e-05
5.48546e-05
7.74879e-05
9.78315e-05
0.000114248
0.000126564
0.000135946
0.000142105
0.000145688
0.000147284
0.000147293
0.000145978
0.0001435
0.000140034
0.000135602
0.000130082
0.000124032
0.000116993
0.000108841
9.95929e-05
8.77321e-05
7.29482e-05
5.87817e-05
4.57255e-05
3.54974e-05
3.13903e-05
3.27944e-05
4.41625e-05
6.56603e-05
8.69988e-05
0.000101502
0.000110101
0.000115526
0.00012121
0.000130462
0.000145149
0.000157786
0.000169925
0.000190925
0.000219086
0.00025236
0.000293873
0.000339209
0.000391092
0.00044531
0.000503227
0.000562076
0.000622477
0.000683059
0.000743622
0.000803521
0.00086236
0.000919553
0.00097541
0.0010301
0.00108335
0.00113489
0.00118502
0.00123368
0.00128105
0.00132722
0.0013723
0.00141638
0.00145957
0.00150193
0.00154355
0.00158449
0.00162478
0.00166448
0.0017036
0.00174218
0.00178022
0.00181774
0.00185474
0.00189123
0.00192721
0.00196269
0.00199766
0.00203214
0.00206611
0.0020996
0.0021326
0.0021651
0.00219712
0.00222866
0.00225971
0.00229028
0.00232035
0.00234994
0.00237901
0.00240758
0.00243562
0.00246314
0.00249011
0.00251655
0.00254244
0.00256781
0.00259262
0.0026169
0.00264061
0.00266374
0.00268629
0.00270823
0.00272954
0.00275022
0.00277024
0.0027896
0.00280829
0.0028263
0.00284361
0.00286022
0.00287611
0.00289129
0.00290574
0.00291946
0.00293245
0.00294471
0.00295623
0.00296702
0.00297707
0.00298638
0.00299496
0.0030028
0.00300983
0.00301581
0.00302121
0.00302596
0.00302998
0.00303324
0.00303608
0.00303851
0.00303997
0.00304069
0.00304065
0.00303989
0.0030384
0.00303619
0.00303328
0.00302969
0.00302542
0.00302049
0.0030149
0.00300867
0.00300182
0.00299437
0.00298633
0.00297771
0.00296855
0.00295883
0.0029486
0.00293788
0.00292669
0.00291508
0.00290309
0.00289075
0.0028781
0.0028652
0.00285207
0.00283875
0.00282527
0.00281166
0.00279794
0.00278416
0.00277035
0.00275653
0.00274273
0.00272895
0.00271518
0.00270137
0.00268744
0.00267319
0.00265821
0.00264157
0.0026209
0.00258997
2.02097e-09
1.91596e-07
2.41428e-06
1.27636e-05
3.41651e-05
6.19462e-05
8.95439e-05
0.000112426
0.000130019
0.000143167
0.000152794
0.000158943
0.000162534
0.000164113
0.000164156
0.000162965
0.00016073
0.000157574
0.00015348
0.000148424
0.000142453
0.000135701
0.000127721
0.000117203
0.000100771
8.6129e-05
7.30286e-05
6.14222e-05
5.31177e-05
5.16378e-05
6.02344e-05
7.531e-05
9.82992e-05
0.000115268
0.000128028
0.000136933
0.000144275
0.000153913
0.000169115
0.000180349
0.000191612
0.000212031
0.000239133
0.000272653
0.000313464
0.000360364
0.000413604
0.000470316
0.000530812
0.000592881
0.00065671
0.000721004
0.000785709
0.000850127
0.000914018
0.000976735
0.00103833
0.00109921
0.00115864
0.00121673
0.00127346
0.0013288
0.00138283
0.00143562
0.00148724
0.00153778
0.0015873
0.0016359
0.00168365
0.0017306
0.00177682
0.00182235
0.00186722
0.00191146
0.0019551
0.00199813
0.00204056
0.00208239
0.00212363
0.00216426
0.00220429
0.00224371
0.00228252
0.00232072
0.00235833
0.00239532
0.00243172
0.00246751
0.00250271
0.00253732
0.00257133
0.00260476
0.0026376
0.00266985
0.00270151
0.00273256
0.00276301
0.00279284
0.00282206
0.00285064
0.00287859
0.00290588
0.00293253
0.00295853
0.00298389
0.00300858
0.00303261
0.00305595
0.00307861
0.00310058
0.00312187
0.00314245
0.00316231
0.00318145
0.00319987
0.00321755
0.00323449
0.00325069
0.00326615
0.00328087
0.00329484
0.00330808
0.00332057
0.00333232
0.00334333
0.00335361
0.00336315
0.00337196
0.00337984
0.00338674
0.00339309
0.00339875
0.00340368
0.00340781
0.00341147
0.0034146
0.00341682
0.00341824
0.00341887
0.00341875
0.00341786
0.00341621
0.00341382
0.00341069
0.00340684
0.00340229
0.0033971
0.00339122
0.00338467
0.00337746
0.00336961
0.00336112
0.00335201
0.00334231
0.00333202
0.00332119
0.00330983
0.003298
0.00328572
0.00327304
0.00326
0.00324664
0.003233
0.00321911
0.00320502
0.00319074
0.00317631
0.00316177
0.00314715
0.00313249
0.00311781
0.00310313
0.00308846
0.00307376
0.00305896
0.00304393
0.00302835
0.00301143
0.00299132
0.00296317
6.03477e-09
5.02369e-07
6.40092e-06
2.78081e-05
6.01053e-05
9.35244e-05
0.000121594
0.000142955
0.000158071
0.000167863
0.000173176
0.000175594
0.000176171
0.000175475
0.000173786
0.000171279
0.000167982
0.00016374
0.000158562
0.000152534
0.000145875
0.000138271
0.000127671
0.000110796
9.56069e-05
8.29214e-05
7.4063e-05
7.16985e-05
7.5644e-05
8.56779e-05
0.0001061
0.000130285
0.000152024
0.00016252
0.000171739
0.000182239
0.000194962
0.000200901
0.000211221
0.000229578
0.000254251
0.000286101
0.000324776
0.000370049
0.000421691
0.000478425
0.000539241
0.000602408
0.000667546
0.000733608
0.000800364
0.000867206
0.000933907
0.00099992
0.00106503
0.00112968
0.00119333
0.00125585
0.00131716
0.00137727
0.00143617
0.00149388
0.00155045
0.00160592
0.00166034
0.0017138
0.00176633
0.00181801
0.00186889
0.00191902
0.00196845
0.00201721
0.00206532
0.0021128
0.00215965
0.00220586
0.00225144
0.00229636
0.00234062
0.0023842
0.00242709
0.00246928
0.00251078
0.00255158
0.00259167
0.00263107
0.00266977
0.00270777
0.00274507
0.00278169
0.00281763
0.00285289
0.00288747
0.00292139
0.00295462
0.00298718
0.00301906
0.00305025
0.00308075
0.00311055
0.00313962
0.00316798
0.00319563
0.00322258
0.00324882
0.00327435
0.00329917
0.00332326
0.00334663
0.00336926
0.00339116
0.00341232
0.00343275
0.00345244
0.00347139
0.00348961
0.0035071
0.00352385
0.00353987
0.00355517
0.00356975
0.00358362
0.00359676
0.0036092
0.00362094
0.00363198
0.00364231
0.00365194
0.00366061
0.00366843
0.0036757
0.0036823
0.00368819
0.0036933
0.00369791
0.00370193
0.00370509
0.00370745
0.00370904
0.00370985
0.00370989
0.00370917
0.00370767
0.00370542
0.00370242
0.00369868
0.00369423
0.00368901
0.00368306
0.00367641
0.00366907
0.00366104
0.00365235
0.00364301
0.00363303
0.00362246
0.00361132
0.00359965
0.00358749
0.00357487
0.00356184
0.00354843
0.00353469
0.00352064
0.00350633
0.00349179
0.00347704
0.00346213
0.00344709
0.00343195
0.00341676
0.00340154
0.0033863
0.00337103
0.0033557
0.0033402
0.00332431
0.00330743
0.00328823
0.00326323
1.57603e-08
1.24213e-06
1.45908e-05
4.75571e-05
8.6764e-05
0.00012069
0.000146401
0.000164952
0.000176725
0.000183254
0.000185936
0.000185867
0.000183937
0.000180869
0.000177111
0.00017282
0.000167983
0.000162587
0.000156601
0.000149805
0.000142457
0.000134183
0.00012119
0.000110319
0.000104009
9.95173e-05
9.62005e-05
0.000101653
0.000116878
0.000136214
0.000156657
0.000175702
0.000191482
0.000202785
0.00021033
0.000218194
0.000228287
0.000244545
0.000266137
0.000295075
0.00033059
0.000372774
0.000421093
0.000475047
0.000533827
0.000596145
0.000660886
0.000727044
0.00079418
0.000861764
0.00092951
0.000997097
0.0010639
0.00113029
0.00119625
0.00126125
0.00132528
0.00138827
0.00145019
0.00151103
0.0015708
0.00162952
0.00168722
0.00174396
0.00179977
0.00185472
0.00190885
0.0019622
0.00201482
0.00206676
0.00211806
0.00216874
0.00221881
0.00226829
0.00231717
0.00236543
0.00241303
0.00245995
0.00250618
0.00255169
0.00259645
0.00264045
0.00268367
0.00272612
0.0027678
0.0028087
0.00284884
0.00288825
0.00292691
0.0029648
0.00300191
0.00303826
0.00307386
0.00310869
0.00314277
0.00317609
0.00320866
0.00324046
0.0032715
0.00330179
0.00333132
0.00336011
0.00338814
0.00341541
0.00344193
0.00346769
0.00349269
0.00351694
0.00354043
0.00356317
0.00358517
0.00360641
0.00362692
0.0036467
0.00366576
0.00368409
0.00370172
0.00371865
0.00373488
0.00375043
0.00376531
0.00377952
0.00379307
0.00380596
0.00381821
0.00382982
0.00384082
0.00385108
0.00386041
0.00386918
0.00387735
0.00388488
0.00389175
0.00389788
0.00390353
0.00390854
0.00391277
0.00391625
0.00391897
0.00392093
0.00392213
0.00392258
0.00392225
0.00392116
0.00391931
0.0039167
0.00391333
0.00390919
0.00390431
0.00389868
0.00389232
0.00388524
0.00387746
0.00386898
0.00385983
0.00385003
0.00383963
0.00382864
0.00381712
0.00380509
0.00379259
0.00377967
0.00376635
0.00375267
0.00373866
0.00372436
0.00370979
0.003695
0.00368002
0.0036649
0.00364966
0.00363434
0.00361897
0.00360356
0.00358808
0.00357249
0.00355664
0.00354
0.00352152
0.00349912
3.53513e-08
2.86977e-06
2.67876e-05
7.03313e-05
0.000113526
0.000147515
0.000170873
0.000185103
0.000192687
0.000194827
0.000193387
0.000189751
0.000184866
0.000179309
0.00017345
0.000167108
0.000160597
0.000153529
0.000146167
0.000138452
0.000130405
0.000122053
0.000114432
0.00010951
0.000109759
0.000116611
0.000129023
0.000144828
0.000162218
0.000179664
0.000195946
0.000209528
0.000219563
0.000229868
0.000241599
0.000256686
0.000275889
0.00030156
0.000333382
0.000371737
0.000415971
0.00046577
0.000520553
0.000579634
0.000642067
0.000706776
0.000772906
0.000839844
0.000907226
0.000974724
0.00104185
0.00110843
0.00117502
0.00124083
0.00130587
0.00137001
0.0014332
0.00149541
0.00155664
0.00161689
0.00167616
0.00173448
0.00179189
0.00184846
0.00190422
0.00195924
0.00201356
0.00206722
0.00212022
0.00217264
0.00222452
0.00227589
0.00232676
0.00237712
0.00242698
0.00247637
0.00252533
0.00257367
0.00262129
0.00266812
0.00271416
0.00275936
0.00280372
0.00284723
0.00288987
0.00293166
0.00297258
0.00301263
0.00305182
0.00309019
0.00312775
0.00316453
0.0032005
0.0032357
0.0032701
0.00330371
0.00333653
0.00336855
0.00339978
0.00343022
0.00345988
0.00348874
0.0035168
0.00354407
0.00357054
0.00359621
0.0036211
0.00364521
0.00366855
0.00369113
0.00371295
0.00373403
0.00375438
0.00377401
0.00379293
0.00381117
0.00382873
0.00384563
0.00386189
0.00387751
0.00389252
0.00390692
0.00392072
0.00393394
0.00394658
0.00395868
0.00397023
0.00398101
0.00399113
0.00400073
0.00400978
0.00401825
0.00402613
0.00403335
0.00404009
0.00404622
0.00405164
0.00405635
0.00406036
0.00406364
0.00406619
0.004068
0.00406906
0.00406936
0.0040689
0.00406767
0.00406567
0.0040629
0.00405935
0.00405504
0.00404997
0.00404414
0.00403756
0.00403025
0.00402223
0.00401352
0.00400417
0.00399419
0.00398362
0.0039725
0.00396086
0.00394874
0.00393617
0.00392317
0.00390979
0.00389604
0.00388197
0.00386761
0.00385299
0.00383817
0.00382317
0.00380804
0.0037928
0.00377749
0.0037621
0.00374662
0.00373097
0.00371479
0.00369712
0.00367729
6.81329e-08
5.94416e-06
4.03192e-05
8.98981e-05
0.000134679
0.000168001
0.000189258
0.000199943
0.000203105
0.000201312
0.000196453
0.000189834
0.000182372
0.000174299
0.000166283
0.000158158
0.000150292
0.000143265
0.000137377
0.000132548
0.000129027
0.000127811
0.000129755
0.000135189
0.000144131
0.000156034
0.000170056
0.000185079
0.000200128
0.000213902
0.000225503
0.000237157
0.000250651
0.000265746
0.000283921
0.000306874
0.000335201
0.000369494
0.000409351
0.000454531
0.000504498
0.000558835
0.000616973
0.000678209
0.000741698
0.000806627
0.000872369
0.00093849
0.00100471
0.00107038
0.00113587
0.00120105
0.00126558
0.0013293
0.00139213
0.00145403
0.00151497
0.00157498
0.00163406
0.00169224
0.00174954
0.00180595
0.00186154
0.00191642
0.00197066
0.00202432
0.00207747
0.00213024
0.00218287
0.00223517
0.00228705
0.00233851
0.00238955
0.00244016
0.00249035
0.00254008
0.00258921
0.00263776
0.00268566
0.00273281
0.0027792
0.0028248
0.00286956
0.00291345
0.00295648
0.00299864
0.00303994
0.00308041
0.00312004
0.00315884
0.00319681
0.00323396
0.00327029
0.0033058
0.00334049
0.00337435
0.00340739
0.00343959
0.00347096
0.0035015
0.0035312
0.00356008
0.00358812
0.00361532
0.0036417
0.00366725
0.00369199
0.00371593
0.00373908
0.00376145
0.00378307
0.00380395
0.0038241
0.00384354
0.00386229
0.00388039
0.00389784
0.00391467
0.0039309
0.00394655
0.00396164
0.00397618
0.00399019
0.00400369
0.00401668
0.00402923
0.00404121
0.0040526
0.00406349
0.00407391
0.00408384
0.00409327
0.00410217
0.00411054
0.00411843
0.00412576
0.00413246
0.00413852
0.00414392
0.00414865
0.0041527
0.00415603
0.00415864
0.00416052
0.00416164
0.00416199
0.00416157
0.00416037
0.00415839
0.00415561
0.00415205
0.00414769
0.00414255
0.00413664
0.00412997
0.00412259
0.00411451
0.00410576
0.00409638
0.00408641
0.00407586
0.00406477
0.00405317
0.0040411
0.00402856
0.0040156
0.00400224
0.00398853
0.0039745
0.00396019
0.00394564
0.00393089
0.00391597
0.00390093
0.00388579
0.00387055
0.00385519
0.00383945
0.00382248
0.00380491
1.10979e-07
1.04746e-05
5.60539e-05
0.00011223
0.000157856
0.000188377
0.000205191
0.000211686
0.00021118
0.000206284
0.000198896
0.000190177
0.000181126
0.000172489
0.000164657
0.000157951
0.000152345
0.0001487
0.000146737
0.00014669
0.000148894
0.000153572
0.000160706
0.000169994
0.000180978
0.000193201
0.000206217
0.000219003
0.000230805
0.000242688
0.000256861
0.000272965
0.000290659
0.00031192
0.00033752
0.000368081
0.000403663
0.000444151
0.00048913