/*--------------------------------*- C++ -*----------------------------------*\
  =========                 |
  \\      /  F ield         | OpenFOAM: The Open Source CFD Toolbox
   \\    /   O peration     | Website:  https://openfoam.org
    \\  /    A nd           | Version:  13
     \\/     M anipulation  |
\*---------------------------------------------------------------------------*/
FoamFile
{
    format      ascii;
    class       volScalarField;
    location    "2000";
    object      p;
}
// * * * * * * * * * * * * * * * * * * * * * * * * * * * * * * * * * * * * * //

dimensions      [0 2 -2 0 0 0 0];

internalField   nonuniform List<scalar> 
12225
(
-4.29182
-5.15191
-5.54662
-5.68433
-5.82222
-5.98043
-6.13727
-6.27129
-6.37846
-6.51989
-6.59697
-6.5806
-6.62553
-6.68845
-6.7566
-6.82785
-6.90718
-7.00638
-4.56337
-5.18641
-5.52041
-5.65846
-5.79648
-5.9535
-6.10765
-6.23646
-6.34161
-6.44587
-6.51534
-6.56132
-6.61601
-6.67584
-6.74093
-6.80983
-6.87819
-6.92989
-4.73639
-5.17978
-5.5006
-5.6661
-5.8099
-5.96021
-6.10927
-6.23844
-6.3391
-6.41863
-6.48975
-6.56477
-6.62274
-6.67976
-6.73944
-6.8003
-6.85594
-6.89602
-4.86979
-5.19266
-5.50062
-5.67862
-5.81738
-5.95235
-6.09603
-6.22902
-6.32444
-6.40352
-6.47422
-6.54551
-6.6056
-6.66322
-6.72134
-6.77835
-6.82986
-6.86909
-5.00268
-5.23584
-5.51441
-5.69188
-5.82683
-5.96103
-6.12537
-6.21211
-6.30739
-6.3873
-6.45929
-6.52863
-6.58975
-6.64738
-6.70373
-6.75765
-6.80621
-6.8447
-5.12604
-5.29134
-5.53247
-5.70414
-5.8365
-5.97484
-6.09095
-6.1868
-6.28404
-6.36442
-6.43699
-6.50516
-6.56667
-6.62428
-6.67945
-6.73133
-6.7778
-6.81571
-5.23384
-5.35957
-5.55803
-5.72051
-5.8488
-5.97574
-6.0853
-6.1816
-6.2732
-6.35253
-6.42452
-6.49142
-6.55257
-6.60957
-6.66324
-6.71295
-6.75733
-6.79442
-5.32151
-5.41819
-5.58669
-5.73822
-5.86116
-5.97856
-6.08399
-6.17841
-6.26604
-6.34385
-6.41476
-6.48036
-6.54062
-6.59641
-6.64825
-6.6958
-6.73821
-6.77438
-5.39767
-5.47051
-5.61644
-5.75617
-5.87312
-5.98274
-6.08379
-6.17568
-6.26001
-6.33596
-6.4055
-6.4697
-6.52872
-6.58313
-6.63329
-6.67902
-6.71989
-6.75529
-5.46675
-5.52441
-5.64743
-5.77411
-5.88442
-5.98722
-6.08367
-6.17256
-6.25396
-6.32795
-6.39591
-6.45859
-6.51624
-6.56924
-6.61785
-6.66203
-6.70164
-6.73634
-5.53068
-5.5775
-5.67977
-5.79291
-5.89585
-5.9922
-6.08375
-6.16919
-6.24774
-6.31962
-6.38581
-6.4469
-6.50312
-6.55471
-6.60191
-6.64477
-6.68334
-6.71744
-5.58477
-5.62357
-5.70995
-5.81109
-5.90683
-5.99737
-6.08423
-6.16615
-6.24198
-6.31178
-6.37622
-6.43577
-6.49061
-6.54094
-6.58696
-6.62877
-6.66652
-6.70013
-5.63372
-5.66635
-5.73954
-5.82952
-5.9181
-6.00301
-6.08517
-6.16343
-6.23647
-6.30408
-6.36669
-6.42465
-6.47808
-6.52718
-6.57208
-6.61296
-6.64998
-6.68313
-5.68372
-5.71084
-5.77191
-5.85054
-5.93121
-6.00997
-6.08686
-6.16087
-6.23062
-6.29564
-6.35607
-6.41214
-6.46396
-6.51164
-6.55535
-6.59523
-6.6315
-6.66411
-5.73267
-5.755
-5.8055
-5.87324
-5.94564
-6.0179
-6.08921
-6.15855
-6.2246
-6.28664
-6.34461
-6.39856
-6.44858
-6.49472
-6.53715
-6.57598
-6.61143
-6.64352
-5.77759
-5.79598
-5.83782
-5.89585
-5.9602
-6.02598
-6.0917
-6.15626
-6.2184
-6.2773
-6.33262
-6.38436
-6.43245
-6.47701
-6.51808
-6.55583
-6.5904
-6.62191
-5.81434
-5.82973
-5.86504
-5.91526
-5.97262
-6.03256
-6.09321
-6.15336
-6.2118
-6.26764
-6.32042
-6.36996
-6.41621
-6.45917
-6.49892
-6.53555
-6.56925
-6.60007
-5.83674
-5.85022
-5.88145
-5.9266
-5.97915
-6.03489
-6.09183
-6.14869
-6.20429
-6.25772
-6.30843
-6.35616
-6.40084
-6.44241
-6.48096
-6.51656
-6.54939
-6.57953
-5.83485
-5.84792
-5.87829
-5.92237
-5.97375
-6.02833
-6.08415
-6.13996
-6.19459
-6.24708
-6.2969
-6.34376
-6.38757
-6.42831
-6.46606
-6.50091
-6.53306
-6.56263
-5.8004
-5.81536
-5.84976
-5.89853
-5.95401
-6.01179
-6.07036
-6.12851
-6.18506
-6.23897
-6.28981
-6.3373
-6.38147
-6.42226
-6.45986
-6.49437
-6.52608
-6.55514
-5.7513
-5.76955
-5.81102
-5.86787
-5.92993
-5.99297
-6.05604
-6.1182
-6.17798
-6.23444
-6.28718
-6.33612
-6.3812
-6.42254
-6.46028
-6.49472
-6.52606
-6.55474
-5.68834
-5.71198
-5.76476
-5.83303
-5.90353
-5.97302
-6.04199
-6.10932
-6.17328
-6.23294
-6.28813
-6.3389
-6.38525
-6.42731
-6.46533
-6.49967
-6.53069
-6.55882
-5.61364
-5.6458
-5.71501
-5.79732
-5.87677
-5.9533
-6.02897
-6.10216
-6.1707
-6.23393
-6.29195
-6.34481
-6.39256
-6.43537
-6.47365
-6.5078
-6.53833
-6.56572
-5.52779
-5.57472
-5.6661
-5.76315
-5.85051
-5.93409
-6.01714
-6.09643
-6.1695
-6.23633
-6.29736
-6.35252
-6.4018
-6.44544
-6.48395
-6.51798
-6.54803
-6.57483
-5.43158
-5.50202
-5.62013
-5.73079
-5.82364
-5.91404
-6.00516
-6.09097
-6.16874
-6.23935
-6.3035
-6.36112
-6.41196
-6.4563
-6.49486
-6.52838
-6.55761
-6.5833
-5.32819
-5.42793
-5.57901
-5.70221
-5.79914
-5.89605
-5.99478
-6.08662
-6.16913
-6.24384
-6.31144
-6.37184
-6.42478
-6.47036
-6.50935
-6.54271
-6.57131
-6.5964
-5.21668
-5.35709
-5.54296
-5.67489
-5.77797
-5.88403
-5.98988
-6.08619
-6.17212
-6.24974
-6.31943
-6.38123
-6.43504
-6.48093
-6.51958
-6.55199
-6.57918
-6.6029
-5.08392
-5.3151
-5.52619
-5.65039
-5.75711
-5.87417
-5.9883
-6.08997
-6.18052
-6.26248
-6.33559
-6.39944
-6.4542
-6.50012
-6.53781
-6.56841
-6.59347
-6.6152
-4.88564
-5.29742
-5.54436
-5.64786
-5.74694
-5.86613
-5.98222
-6.08527
-6.17763
-6.26236
-6.33939
-6.40675
-6.46358
-6.51065
-6.54888
-6.57895
-6.60239
-6.62055
-4.61045
-5.21899
-5.52956
-5.64063
-5.74605
-5.87399
-5.99699
-6.1058
-6.20203
-6.28897
-6.3706
-6.44284
-6.50208
-6.55058
-6.58979
-6.61944
-6.63987
-6.65197
-7.47155
-7.47165
-7.47167
-7.47163
-7.47135
-7.47029
-7.46804
-7.46493
-7.46187
-7.45977
-7.45963
-7.46174
-7.46572
-7.47085
-7.47642
-7.48176
-7.48632
-7.4897
-7.49174
-7.49269
-7.49284
-7.49239
-7.49153
-7.49053
-7.48962
-7.48896
-7.48857
-7.48836
-7.48815
-7.48783
-7.48735
-7.48674
-7.48599
-7.48504
-7.48378
-7.48232
-7.48092
-7.48018
-7.4807
-7.48251
-7.48498
-7.4873
-7.48907
-7.49051
-7.49208
-7.49423
-7.49741
-7.50145
-7.5053
-7.50827
-7.51165
-7.51891
-7.53441
-7.5592
-7.59173
-7.63107
-7.6782
-7.73351
-7.79551
-7.86251
-7.93243
-8.00313
-8.073
-8.14047
-8.20473
-8.26519
-8.32119
-8.37254
-8.41926
-8.46134
-8.49891
-8.53205
-8.56086
-8.58544
-8.60585
-8.62215
-8.63438
-8.64256
-8.64669
-8.64677
-8.64276
-8.63467
-8.62243
-8.60609
-8.58557
-8.56088
-8.53192
-8.49864
-8.46096
-8.41885
-8.37226
-8.32111
-8.26526
-8.20456
-8.13887
-8.06806
-7.99205
-7.91088
-7.82458
-7.73306
-7.63613
-7.53352
-7.42489
-7.30993
-7.18853
-7.06074
-6.92649
-6.78572
-6.63836
-6.48436
-6.3237
-6.15636
-5.98238
-5.80178
-5.61463
-5.42099
-5.22099
-5.01479
-4.80258
-4.58458
-4.36097
-4.13197
-3.89783
-3.65881
-3.41523
-3.1674
-2.91567
-2.66036
-2.40184
-2.14044
-1.87658
-1.61057
-1.34285
-1.07375
-0.803686
-0.532981
-0.261952
0.00933042
0.280572
0.551387
0.821462
1.0905
1.35821
1.62431
1.88855
2.15069
2.41052
2.66782
2.92241
3.17411
3.42274
3.66813
3.91016
4.14867
4.38354
4.61466
4.84195
5.06532
5.28473
5.50013
5.71152
5.91888
6.12223
6.32159
6.51698
6.70846
6.89605
7.07982
7.25983
7.43615
7.60886
7.77802
7.9437
8.106
8.26495
8.42071
8.57352
8.72344
8.87342
9.0149
-7.47264
-7.47279
-7.47311
-7.47347
-7.47348
-7.47276
-7.47102
-7.46868
-7.46689
-7.4666
-7.46814
-7.47145
-7.47607
-7.4814
-7.48684
-7.49191
-7.49621
-7.49955
-7.50172
-7.50256
-7.50206
-7.50048
-7.49818
-7.4956
-7.49315
-7.49115
-7.48971
-7.48873
-7.488
-7.48732
-7.48669
-7.48613
-7.48558
-7.48493
-7.48403
-7.48294
-7.48209
-7.48215
-7.48352
-7.48591
-7.48844
-7.49021
-7.49084
-7.49084
-7.49054
-7.48987
-7.48967
-7.49195
-7.49841
-7.50591
-7.51264
-7.52224
-7.53693
-7.55734
-7.58609
-7.62617
-7.67771
-7.73814
-7.80488
-7.87534
-7.94727
-8.01891
-8.08842
-8.15495
-8.21765
-8.27561
-8.32897
-8.37785
-8.42228
-8.46239
-8.49826
-8.52999
-8.55766
-8.58133
-8.60103
-8.61678
-8.6286
-8.63649
-8.64042
-8.64039
-8.63635
-8.62828
-8.61613
-8.59991
-8.57957
-8.55509
-8.5264
-8.49345
-8.45616
-8.41452
-8.36846
-8.31792
-8.26278
-8.20292
-8.13821
-8.06851
-7.99371
-7.91366
-7.8282
-7.7372
-7.64053
-7.53804
-7.42963
-7.31525
-7.19481
-7.06809
-6.93499
-6.79541
-6.64925
-6.49648
-6.33704
-6.17094
-5.99819
-5.81882
-5.63289
-5.44046
-5.24164
-5.0366
-4.82551
-4.60859
-4.38602
-4.15802
-3.92482
-3.68672
-3.44399
-3.19696
-2.94596
-2.69131
-2.43339
-2.17256
-1.90916
-1.64356
-1.37612
-1.10718
-0.837059
-0.56605
-0.294556
-0.0230588
0.248166
0.518965
0.789035
1.0581
1.32587
1.59207
1.85644
2.11875
2.37878
2.63632
2.89117
3.14316
3.3921
3.63785
3.88026
4.11917
4.35447
4.58605
4.8138
5.03766
5.25757
5.47348
5.68537
5.89324
6.0971
6.29696
6.49284
6.68481
6.87288
7.05712
7.23759
7.41437
7.58752
7.75713
7.92328
8.08609
8.24565
8.40209
8.55576
8.70621
8.85849
8.9993
-7.47385
-7.47384
-7.47388
-7.47395
-7.47402
-7.47401
-7.47413
-7.47486
-7.47668
-7.47978
-7.484
-7.48901
-7.49444
-7.49987
-7.50493
-7.50933
-7.51285
-7.51537
-7.51682
-7.51715
-7.51631
-7.51443
-7.51165
-7.50816
-7.50418
-7.49996
-7.49576
-7.49184
-7.48842
-7.48565
-7.48353
-7.48193
-7.48058
-7.47925
-7.47808
-7.47751
-7.47818
-7.48047
-7.48411
-7.48782
-7.49011
-7.4899
-7.48767
-7.48527
-7.48455
-7.48551
-7.48714
-7.49121
-7.50016
-7.51347
-7.53087
-7.55351
-7.5818
-7.61605
-7.65684
-7.70458
-7.75847
-7.81678
-7.87799
-7.94059
-8.00329
-8.06511
-8.12516
-8.18289
-8.23781
-8.2894
-8.33753
-8.38209
-8.42303
-8.46033
-8.49398
-8.52397
-8.55028
-8.57291
-8.59183
-8.607
-8.61841
-8.62602
-8.62978
-8.62966
-8.62562
-8.61761
-8.6056
-8.58955
-8.56943
-8.54521
-8.51682
-8.48421
-8.44733
-8.40612
-8.36056
-8.31055
-8.25599
-8.19678
-8.13281
-8.06399
-7.99018
-7.91126
-7.82702
-7.73726
-7.64182
-7.54056
-7.43341
-7.32032
-7.20119
-7.07585
-6.94418
-6.80605
-6.66138
-6.51011
-6.35221
-6.18764
-6.01641
-5.83856
-5.65413
-5.4632
-5.26585
-5.06226
-4.85258
-4.63701
-4.41574
-4.189
-3.957
-3.72004
-3.4784
-3.2324
-2.98235
-2.7286
-2.4715
-2.21144
-1.94874
-1.6838
-1.41695
-1.14856
-0.878926
-0.608381
-0.337294
-0.0661134
0.20488
0.475483
0.745412
1.01438
1.2821
1.54829
1.8127
2.07508
2.33522
2.59291
2.84795
3.10015
3.34935
3.59539
3.83811
4.07737
4.31305
4.54503
4.77321
4.99751
5.21788
5.43426
5.64662
5.85496
6.05927
6.25957
6.45589
6.64827
6.83673
7.02135
7.20217
7.37926
7.55271
7.72259
7.88899
8.052
8.21176
8.36842
8.52256
8.6731
8.8277
8.964
-7.4749
-7.47465
-7.47431
-7.47428
-7.47523
-7.4776
-7.4813
-7.48601
-7.4914
-7.49717
-7.50305
-7.5088
-7.51422
-7.51913
-7.52336
-7.52677
-7.52926
-7.53076
-7.53123
-7.53066
-7.52903
-7.52641
-7.52288
-7.51851
-7.51339
-7.50763
-7.50139
-7.49488
-7.48841
-7.48229
-7.47684
-7.47222
-7.46856
-7.46606
-7.46517
-7.46655
-7.47027
-7.47526
-7.47988
-7.48267
-7.48327
-7.48231
-7.48118
-7.48149
-7.48413
-7.48951
-7.49819
-7.511
-7.52873
-7.55156
-7.57925
-7.61142
-7.64769
-7.68787
-7.73172
-7.77898
-7.82917
-7.88165
-7.93573
-7.99065
-8.04566
-8.10005
-8.15322
-8.20468
-8.254
-8.30084
-8.34495
-8.38618
-8.42437
-8.45943
-8.49128
-8.51984
-8.54503
-8.5668
-8.58507
-8.59979
-8.61087
-8.61826
-8.62191
-8.62175
-8.61774
-8.60983
-8.59797
-8.58212
-8.56225
-8.53831
-8.51027
-8.47806
-8.44163
-8.40094
-8.35594
-8.30655
-8.25266
-8.19418
-8.131
-8.063
-7.99007
-7.91208
-7.82886
-7.74022
-7.64599
-7.54601
-7.4402
-7.32846
-7.21067
-7.08671
-6.95643
-6.81972
-6.6765
-6.52669
-6.37025
-6.20715
-6.03738
-5.86098
-5.67797
-5.48844
-5.29248
-5.09023
-4.88186
-4.66755
-4.44749
-4.22189
-3.991
-3.75508
-3.51443
-3.26935
-3.02017
-2.76723
-2.51088
-2.2515
-1.98943
-1.72506
-1.45872
-1.19079
-0.921573
-0.651422
-0.380692
-0.109772
0.161043
0.431504
0.701333
0.970239
1.23793
1.50413
1.76858
2.03105
2.2913
2.54914
2.80435
3.05677
3.30621
3.55252
3.79555
4.03514
4.27118
4.50354
4.73213
4.95685
5.17765
5.39448
5.60729
5.81608
6.02084
6.22158
6.41833
6.61111
6.79996
6.98494
7.16609
7.34347
7.51717
7.68727
7.85387
8.01706
8.177
8.33379
8.48814
8.63832
8.7934
8.92317
-7.47697
-7.47645
-7.47606
-7.47718
-7.48088
-7.4867
-7.4936
-7.50088
-7.50805
-7.51484
-7.52109
-7.52673
-7.53172
-7.53597
-7.53943
-7.542
-7.54362
-7.54425
-7.54385
-7.54241
-7.53992
-7.53641
-7.53193
-7.52653
-7.52027
-7.51321
-7.50541
-7.49701
-7.48823
-7.4794
-7.47102
-7.46368
-7.45809
-7.4551
-7.45545
-7.45877
-7.46331
-7.46766
-7.47119
-7.47368
-7.47552
-7.47754
-7.48096
-7.48683
-7.49601
-7.50935
-7.52731
-7.54966
-7.57573
-7.60518
-7.6377
-7.67297
-7.71084
-7.75122
-7.79401
-7.83901
-7.88588
-7.93418
-7.98343
-8.03312
-8.08275
-8.13182
-8.1799
-8.2266
-8.27159
-8.31459
-8.35535
-8.39369
-8.42945
-8.46249
-8.49266
-8.51986
-8.54396
-8.56486
-8.58246
-8.59664
-8.60733
-8.61442
-8.61786
-8.61756
-8.61347
-8.60553
-8.59369
-8.57792
-8.55817
-8.5344
-8.50658
-8.47465
-8.43857
-8.39828
-8.35377
-8.30492
-8.25165
-8.19385
-8.1314
-8.0642
-7.99211
-7.91501
-7.83273
-7.74511
-7.65198
-7.55319
-7.4486
-7.3381
-7.22155
-7.09882
-6.96979
-6.83434
-6.69237
-6.54382
-6.38862
-6.22676
-6.05821
-5.883
-5.70116
-5.51276
-5.3179
-5.11672
-4.90938
-4.69603
-4.47689
-4.25216
-4.02209
-3.78692
-3.54699
-3.30256
-3.054
-2.80161
-2.54579
-2.28686
-2.02523
-1.76121
-1.49521
-1.22754
-0.958577
-0.68865
-0.418133
-0.14735
0.123383
0.393797
0.663602
0.932499
1.2002
1.46644
1.73095
1.9935
2.25387
2.51183
2.7672
3.0198
3.26944
3.51597
3.75924
3.9991
4.23542
4.46809
4.69699
4.92205
5.14319
5.36036
5.57353
5.78268
5.9878
6.18889
6.38597
6.57907
6.76822
6.95348
7.13488
7.3125
7.48641
7.65669
7.82342
7.98671
8.14671
8.30345
8.45765
8.60702
8.76158
8.88428
-7.48089
-7.48003
-7.48036
-7.48426
-7.49114
-7.49921
-7.50748
-7.51543
-7.52281
-7.5295
-7.53552
-7.54083
-7.5454
-7.54917
-7.55207
-7.55403
-7.55502
-7.55499
-7.55392
-7.55181
-7.54864
-7.54445
-7.53926
-7.53308
-7.52592
-7.5178
-7.50884
-7.49919
-7.48904
-7.47877
-7.46909
-7.46086
-7.45514
-7.45274
-7.45323
-7.45518
-7.45758
-7.46039
-7.46394
-7.46847
-7.47417
-7.48133
-7.49101
-7.50428
-7.52153
-7.54263
-7.56713
-7.5947
-7.62492
-7.65744
-7.69207
-7.7286
-7.76692
-7.80691
-7.84846
-7.89137
-7.93542
-7.9803
-8.02567
-8.07121
-8.11657
-8.16141
-8.20543
-8.24833
-8.28984
-8.32971
-8.36772
-8.40367
-8.43739
-8.46869
-8.49743
-8.52344
-8.54657
-8.56668
-8.58364
-8.59731
-8.60758
-8.61435
-8.61752
-8.61701
-8.61276
-8.6047
-8.59278
-8.57697
-8.55723
-8.53352
-8.5058
-8.47405
-8.43819
-8.39823
-8.35408
-8.30569
-8.25295
-8.19574
-8.13397
-8.06749
-7.99619
-7.91991
-7.83851
-7.75182
-7.65968
-7.56193
-7.45842
-7.349
-7.23354
-7.1119
-6.98394
-6.84956
-6.70865
-6.56114
-6.40696
-6.24609
-6.0785
-5.90422
-5.72327
-5.53572
-5.34167
-5.14126
-4.93463
-4.72195
-4.50341
-4.27923
-4.04966
-3.81497
-3.57544
-3.33139
-3.08316
-2.83107
-2.5755
-2.3168
-2.05536
-1.79151
-1.52562
-1.25804
-0.989152
-0.719299
-0.448838
-0.178082
0.0926596
0.3631
0.632937
0.901876
1.16963
1.43592
1.7005
1.96314
2.22359
2.48167
2.73716
2.98989
3.23969
3.48639
3.72983
3.96989
4.2064
4.43928
4.66839
4.89368
5.11504
5.33245
5.54586
5.75525
5.9606
6.16191
6.3592
6.5525
6.74183
6.92724
7.10877
7.2865
7.46049
7.63082
7.79756
7.96081
8.12068
8.27715
8.4309
8.57918
8.73301
8.84874
-7.48594
-7.4854
-7.48762
-7.49422
-7.50263
-7.51112
-7.51923
-7.52682
-7.53385
-7.54026
-7.54602
-7.55107
-7.55534
-7.55876
-7.56127
-7.56282
-7.56337
-7.5629
-7.56138
-7.5588
-7.55519
-7.55056
-7.54488
-7.5381
-7.53024
-7.52144
-7.51185
-7.50168
-7.49123
-7.48099
-7.47175
-7.46451
-7.45985
-7.45715
-7.45558
-7.45514
-7.45619
-7.45928
-7.46452
-7.47179
-7.48157
-7.49455
-7.51094
-7.53062
-7.55337
-7.57897
-7.60705
-7.6373
-7.66953
-7.70352
-7.73909
-7.77605
-7.81426
-7.85359
-7.89389
-7.93502
-7.97679
-8.01901
-8.06145
-8.10388
-8.14608
-8.18779
-8.22878
-8.26882
-8.30768
-8.34516
-8.38104
-8.41513
-8.44724
-8.47718
-8.50477
-8.52983
-8.55217
-8.57163
-8.58805
-8.60127
-8.61115
-8.61759
-8.62047
-8.6197
-8.61522
-8.60697
-8.59489
-8.57895
-8.55912
-8.53536
-8.50764
-8.47595
-8.44025
-8.40048
-8.35662
-8.3086
-8.25629
-8.1996
-8.13841
-8.07259
-8.00199
-7.92647
-7.84588
-7.76005
-7.6688
-7.57198
-7.46942
-7.36095
-7.24643
-7.12572
-6.99868
-6.86519
-6.72516
-6.57849
-6.42513
-6.26503
-6.09817
-5.92458
-5.74427
-5.55731
-5.36382
-5.1639
-4.95771
-4.74542
-4.52721
-4.30332
-4.07397
-3.83948
-3.6001
-3.35618
-3.10802
-2.856
-2.60045
-2.3418
-2.08033
-1.81646
-1.55051
-1.28288
-1.01392
-0.744015
-0.473483
-0.202651
0.0681839
0.338717
0.608643
0.877665
1.1455
1.41187
1.67653
1.93924
2.19978
2.45794
2.71352
2.96634
3.21624
3.46305
3.70662
3.94678
4.18342
4.41641
4.64565
4.87105
5.09256
5.31009
5.52363
5.73314
5.93861
6.14003
6.33742
6.53078
6.72016
6.9056
7.08714
7.26485
7.43879
7.60904
7.77566
7.93873
8.09834
8.25436
8.4075
8.55455
8.70766
8.81682
-7.49009
-7.49063
-7.4953
-7.50314
-7.51139
-7.51931
-7.52687
-7.53405
-7.54078
-7.54697
-7.55254
-7.5574
-7.56147
-7.56468
-7.56697
-7.56829
-7.5686
-7.56788
-7.56611
-7.5633
-7.55945
-7.55456
-7.54851
-7.54133
-7.53323
-7.5244
-7.51494
-7.50509
-7.4953
-7.48628
-7.47872
-7.47279
-7.46781
-7.46337
-7.46021
-7.45932
-7.46083
-7.46492
-7.47225
-7.48311
-7.49736
-7.51482
-7.53528
-7.55853
-7.58427
-7.61226
-7.64225
-7.674
-7.70731
-7.742
-7.7779
-7.81483
-7.85267
-7.89127
-7.93052
-7.97027
-8.01037
-8.05068
-8.09105
-8.1313
-8.17125
-8.21074
-8.24956
-8.28754
-8.3245
-8.36023
-8.39457
-8.4273
-8.45825
-8.4872
-8.51395
-8.53832
-8.56008
-8.57905
-8.59504
-8.60789
-8.61744
-8.62356
-8.62614
-8.62509
-8.62033
-8.61182
-8.5995
-8.58334
-8.56332
-8.53941
-8.5116
-8.47987
-8.4442
-8.40457
-8.36092
-8.31317
-8.26122
-8.20497
-8.14429
-8.07905
-8.00909
-7.93427
-7.85442
-7.76937
-7.67893
-7.58293
-7.48119
-7.37356
-7.25986
-7.13994
-7.01368
-6.88094
-6.74162
-6.59562
-6.44289
-6.28337
-6.11706
-5.94394
-5.76406
-5.57749
-5.38432
-5.18468
-4.9787
-4.76656
-4.54845
-4.3246
-4.09527
-3.86073
-3.62129
-3.37727
-3.12899
-2.87684
-2.62116
-2.36234
-2.10069
-1.83663
-1.5705
-1.30269
-1.03356
-0.763481
-0.492788
-0.221796
0.0491925
0.319863
0.589912
0.859039
1.12696
1.39342
1.65815
1.92093
2.18154
2.43976
2.6954
2.94829
3.19825
3.44513
3.68876
3.92899
4.16569
4.39873
4.62802
4.85347
5.07503
5.29261
5.50619
5.71574
5.92124
6.12268
6.32007
6.51341
6.70274
6.8881
7.06955
7.24715
7.42095
7.59103
7.75744
7.92023
8.07947
8.23495
8.38737
8.53317
8.68561
8.78872
-7.49155
-7.49358
-7.49991
-7.50766
-7.51527
-7.52266
-7.52986
-7.53678
-7.54334
-7.54941
-7.5549
-7.5597
-7.56371
-7.56687
-7.56911
-7.57038
-7.57064
-7.56989
-7.56809
-7.56525
-7.56135
-7.55634
-7.55019
-7.54307
-7.53524
-7.52681
-7.518
-7.50922
-7.50093
-7.49346
-7.4868
-7.48068
-7.47498
-7.47013
-7.46712
-7.46679
-7.46958
-7.47585
-7.48579
-7.49923
-7.51595
-7.53572
-7.55827
-7.58332
-7.61061
-7.63987
-7.6709
-7.70345
-7.73734
-7.77237
-7.80838
-7.84523
-7.88275
-7.92082
-7.95931
-7.99809
-8.03706
-8.07608
-8.11505
-8.15381
-8.19224
-8.23021
-8.26756
-8.30414
-8.3398
-8.37437
-8.40768
-8.43952
-8.46971
-8.49803
-8.52427
-8.54819
-8.56958
-8.58824
-8.60394
-8.61651
-8.62578
-8.63159
-8.63386
-8.63248
-8.62741
-8.61857
-8.60593
-8.58947
-8.56916
-8.545
-8.51699
-8.48513
-8.44943
-8.40983
-8.36632
-8.31878
-8.26714
-8.21127
-8.15104
-8.08632
-8.01694
-7.94276
-7.86358
-7.77923
-7.68951
-7.59424
-7.49324
-7.38633
-7.27333
-7.15411
-7.0285
-6.89637
-6.75762
-6.61216
-6.4599
-6.30081
-6.13486
-5.96206
-5.78244
-5.59607
-5.40304
-5.20348
-4.99752
-4.78533
-4.56714
-4.34314
-4.11363
-3.87886
-3.63919
-3.39489
-3.14635
-2.89389
-2.63794
-2.37879
-2.11685
-1.85247
-1.58607
-1.31798
-1.04859
-0.778261
-0.507335
-0.236119
0.0350669
0.30591
0.576102
0.845346
1.11337
1.3799
1.6447
1.90753
2.16817
2.42642
2.68208
2.935
3.18499
3.4319
3.67555
3.91578
4.15247
4.3855
4.61477
4.84021
5.06173
5.27929
5.49284
5.70236
5.90781
6.1092
6.30649
6.49973
6.68892
6.87414
7.05542
7.23283
7.40642
7.57627
7.7424
7.90483
8.06362
8.2185
8.37014
8.51471
8.6665
8.76424
-7.48892
-7.49229
-7.49904
-7.50631
-7.51353
-7.5207
-7.52776
-7.53463
-7.54119
-7.54732
-7.5529
-7.55781
-7.56197
-7.56528
-7.56767
-7.5691
-7.56951
-7.56888
-7.56719
-7.56444
-7.56059
-7.55566
-7.54972
-7.54298
-7.53568
-7.52802
-7.5203
-7.51277
-7.50546
-7.4984
-7.49171
-7.48547
-7.48003
-7.47604
-7.47431
-7.47545
-7.47983
-7.48765
-7.49902
-7.5138
-7.53179
-7.55275
-7.57639
-7.60241
-7.63055
-7.66056
-7.6922
-7.72527
-7.75955
-7.79485
-7.83101
-7.86785
-7.90523
-7.943
-7.98105
-8.01927
-8.05755
-8.09578
-8.13387
-8.1717
-8.20918
-8.2462
-8.28264
-8.31837
-8.35325
-8.38714
-8.41986
-8.45122
-8.48103
-8.50904
-8.53503
-8.55874
-8.57995
-8.59843
-8.61394
-8.62628
-8.63528
-8.6408
-8.64274
-8.64102
-8.63557
-8.62636
-8.61335
-8.5965
-8.57583
-8.55133
-8.52303
-8.49098
-8.45515
-8.41555
-8.37209
-8.32472
-8.27332
-8.21778
-8.15796
-8.09371
-8.02486
-7.95125
-7.87268
-7.78896
-7.6999
-7.60529
-7.50494
-7.39867
-7.2863
-7.16766
-7.0426
-6.91099
-6.7727
-6.62764
-6.47574
-6.31695
-6.15123
-5.97861
-5.7991
-5.61278
-5.41975
-5.22011
-5.01401
-4.80163
-4.58318
-4.35889
-4.12905
-3.89393
-3.65387
-3.40917
-3.16023
-2.90738
-2.651
-2.39144
-2.12909
-1.86433
-1.59756
-1.32913
-1.05942
-0.78879
-0.517581
-0.246112
0.0252928
0.296319
0.566656
0.836014
1.10412
1.37072
1.63556
1.89842
2.15907
2.41733
2.67299
2.92589
3.17588
3.42279
3.66641
3.90659
4.14321
4.37616
4.60534
4.83069
5.05212
5.26958
5.48303
5.69244
5.89779
6.09906
6.29621
6.48926
6.67826
6.86327
7.04432
7.22148
7.39482
7.56437
7.73017
7.89219
8.05048
8.20471
8.35556
8.49891
8.65006
8.74313
-7.48051
-7.48465
-7.49125
-7.4984
-7.50572
-7.51303
-7.52023
-7.52727
-7.53404
-7.54043
-7.54629
-7.55151
-7.55597
-7.55958
-7.56224
-7.56392
-7.56457
-7.56416
-7.56268
-7.56012
-7.55651
-7.55191
-7.54647
-7.5404
-7.53387
-7.52699
-7.51988
-7.51267
-7.50549
-7.49844
-7.4918
-7.48597
-7.4814
-7.47859
-7.47809
-7.48044
-7.48599
-7.49491
-7.50728
-7.52298
-7.54182
-7.56356
-7.58791
-7.61459
-7.64335
-7.67393
-7.70612
-7.73966
-7.77437
-7.81003
-7.84645
-7.88345
-7.92089
-7.95864
-7.99656
-8.03455
-8.0725
-8.11033
-8.14796
-8.1853
-8.22228
-8.25881
-8.29477
-8.33006
-8.36456
-8.39813
-8.4306
-8.46179
-8.49147
-8.51942
-8.54539
-8.5691
-8.59029
-8.60872
-8.62413
-8.63631
-8.64507
-8.65029
-8.65187
-8.64975
-8.64389
-8.63425
-8.62079
-8.6035
-8.58237
-8.55744
-8.52878
-8.49644
-8.46045
-8.42076
-8.37733
-8.33008
-8.27888
-8.22362
-8.16416
-8.10034
-8.03199
-7.95891
-7.88092
-7.79778
-7.70932
-7.6153
-7.51556
-7.40986
-7.29806
-7.17994
-7.05536
-6.92417
-6.78625
-6.64152
-6.48988
-6.33128
-6.16571
-5.99316
-5.81366
-5.6273
-5.43414
-5.23432
-5.02796
-4.81529
-4.59647
-4.3718
-4.14152
-3.90596
-3.66541
-3.42025
-3.17081
-2.91748
-2.66059
-2.40057
-2.13775
-1.87257
-1.60538
-1.33658
-1.06651
-0.795549
-0.524031
-0.252293
0.0193415
0.290551
0.561034
0.830502
1.09869
1.36534
1.63021
1.89307
2.15371
2.41193
2.66754
2.92039
3.17034
3.4172
3.66075
3.9008
4.13726
4.37005
4.59909
4.82428
5.04555
5.26284
5.47614
5.6854
5.8906
6.09169
6.28864
6.48144
6.6702
6.85493
7.03571
7.21258
7.38561
7.55484
7.72028
7.88186
8.0396
8.19316
8.34323
8.48542
8.63591
8.72499
-7.46489
-7.46917
-7.47588
-7.48365
-7.49158
-7.49933
-7.50689
-7.51426
-7.5214
-7.52821
-7.53453
-7.5402
-7.54507
-7.54906
-7.55209
-7.55413
-7.55512
-7.55506
-7.55394
-7.55177
-7.54861
-7.54454
-7.53965
-7.53406
-7.52789
-7.52126
-7.51427
-7.50706
-7.4998
-7.49282
-7.48648
-7.48113
-7.47721
-7.47523
-7.47572
-7.47909
-7.48565
-7.49555
-7.50882
-7.52534
-7.54493
-7.56735
-7.59235
-7.61967
-7.64905
-7.68027
-7.71307
-7.74721
-7.78248
-7.81864
-7.85549
-7.89287
-7.93061
-7.96858
-8.00665
-8.04469
-8.08261
-8.12032
-8.15778
-8.19491
-8.23165
-8.26794
-8.3037
-8.33884
-8.37325
-8.40679
-8.43929
-8.47056
-8.50037
-8.52848
-8.55461
-8.57847
-8.59976
-8.61822
-8.63359
-8.64562
-8.6541
-8.65893
-8.66006
-8.65745
-8.65109
-8.64096
-8.62699
-8.60916
-8.58748
-8.56202
-8.53291
-8.50025
-8.46405
-8.42429
-8.38088
-8.33372
-8.2827
-8.22771
-8.16861
-8.10521
-8.03734
-7.96478
-7.88732
-7.80475
-7.71685
-7.62342
-7.52424
-7.41911
-7.30781
-7.19018
-7.06603
-6.93522
-6.79763
-6.65316
-6.50173
-6.34328
-6.17779
-6.00526
-5.82573
-5.63925
-5.44591
-5.24584
-5.03918
-4.82613
-4.60692
-4.3818
-4.15105
-3.91499
-3.67394
-3.42826
-3.1783
-2.92445
-2.66704
-2.40651
-2.14322
-1.87758
-1.60996
-1.34075
-1.0703
-0.798975
-0.527137
-0.255127
0.0167314
0.288118
0.558736
0.828297
1.09654
1.36321
1.62808
1.8909
2.15149
2.40962
2.66514
2.91789
3.16777
3.41457
3.65801
3.89788
4.13413
4.36669
4.59552
4.82049
5.04155
5.25863
5.47171
5.68077
5.8858
6.08669
6.28337
6.47588
6.66433
6.84876
7.02922
7.20577
7.37848
7.54737
7.71241
7.87352
8.03071
8.18358
8.33287
8.47396
8.62377
8.70954
-7.44157
-7.44568
-7.45317
-7.4622
-7.47108
-7.4794
-7.48739
-7.49523
-7.50296
-7.51045
-7.51748
-7.52379
-7.52922
-7.53371
-7.53723
-7.53973
-7.5412
-7.54161
-7.54097
-7.53927
-7.53655
-7.53288
-7.52832
-7.52295
-7.51687
-7.51018
-7.50305
-7.49568
-7.48838
-7.48143
-7.4752
-7.47012
-7.46669
-7.46541
-7.46674
-7.47102
-7.47852
-7.48933
-7.50345
-7.52076
-7.54109
-7.56423
-7.58993
-7.61798
-7.64812
-7.68011
-7.71371
-7.74865
-7.78469
-7.82156
-7.85907
-7.89701
-7.93523
-7.97357
-8.01191
-8.05013
-8.08815
-8.12591
-8.16336
-8.20045
-8.23714
-8.27338
-8.30913
-8.34432
-8.37884
-8.41256
-8.4453
-8.47686
-8.507
-8.53542
-8.56177
-8.58576
-8.60709
-8.6255
-8.64072
-8.65246
-8.6605
-8.66478
-8.66534
-8.66218
-8.65532
-8.64469
-8.63023
-8.61183
-8.5895
-8.56341
-8.5338
-8.50084
-8.46452
-8.42472
-8.38134
-8.33428
-8.28345
-8.22873
-8.16998
-8.10702
-8.03963
-7.9676
-7.89068
-7.80866
-7.72133
-7.62847
-7.52986
-7.42529
-7.31452
-7.19735
-7.07362
-6.94317
-6.80589
-6.66167
-6.51043
-6.35213
-6.18672
-6.01421
-5.83463
-5.64804
-5.45452
-5.2542
-5.04725
-4.83384
-4.61425
-4.38869
-4.15751
-3.92097
-3.67943
-3.43322
-3.18275
-2.92835
-2.67046
-2.40941
-2.14566
-1.87956
-1.61153
-1.34191
-1.07107
-0.799391
-0.527256
-0.254998
0.0170476
0.288573
0.559276
0.828883
1.09713
1.36377
1.62856
1.89128
2.15173
2.40972
2.66506
2.91764
3.16737
3.4141
3.65742
3.89712
4.13313
4.36543
4.59398
4.8187
5.03949
5.25632
5.46915
5.67799
5.88283
6.08353
6.27993
6.47211
6.66021
6.84431
7.02444
7.20065
7.37302
7.54158
7.70624
7.86686
8.02346
8.17566
8.32418
8.46424
8.61331
8.69646
-7.41133
-7.41565
-7.42452
-7.4352
-7.44513
-7.45407
-7.46275
-7.4714
-7.4799
-7.48822
-7.4962
-7.50345
-7.50963
-7.51467
-7.5187
-7.52175
-7.52377
-7.52472
-7.52456
-7.52329
-7.52092
-7.51748
-7.51302
-7.5076
-7.50133
-7.49438
-7.48695
-7.47928
-7.47168
-7.46453
-7.45827
-7.45338
-7.45034
-7.44964
-7.45167
-7.45673
-7.46502
-7.47662
-7.49151
-7.50959
-7.53071
-7.55466
-7.58123
-7.61017
-7.64123
-7.67417
-7.70872
-7.74459
-7.78151
-7.81922
-7.85749
-7.89612
-7.93491
-7.97371
-8.01238
-8.05083
-8.08901
-8.12686
-8.16436
-8.20147
-8.23818
-8.27446
-8.31028
-8.34557
-8.38024
-8.41416
-8.44714
-8.47897
-8.50936
-8.53798
-8.56443
-8.58836
-8.60949
-8.62762
-8.64246
-8.65366
-8.661
-8.66456
-8.66454
-8.66096
-8.65378
-8.64289
-8.62812
-8.60929
-8.58639
-8.5597
-8.52965
-8.4965
-8.4601
-8.42028
-8.37688
-8.32983
-8.27909
-8.22458
-8.16615
-8.1036
-8.03669
-7.96514
-7.88872
-7.8072
-7.72041
-7.62811
-7.53006
-7.42602
-7.31576
-7.19905
-7.0757
-6.94559
-6.8086
-6.66462
-6.51358
-6.35541
-6.19009
-6.01761
-5.83799
-5.65128
-5.45758
-5.25703
-5.04978
-4.83606
-4.6161
-4.39016
-4.15855
-3.92156
-3.67955
-3.43285
-3.18189
-2.92702
-2.66865
-2.40718
-2.14302
-1.87654
-1.60815
-1.33819
-1.06706
-0.795153
-0.522843
-0.250467
0.0216361
0.293159
0.563804
0.833302
1.10139
1.36783
1.63237
1.89482
2.15496
2.4126
2.66756
2.91971
3.16905
3.41544
3.65848
3.89793
4.13369
4.36569
4.59392
4.81832
5.0388
5.25531
5.46784
5.6764
5.88105
6.08164
6.27784
6.4697
6.65746
6.84122
7.021
7.19688
7.36893
7.5372
7.70152
7.86167
8.0177
8.16922
8.31701
8.45609
8.60437
8.68558
-7.3767
-7.38186
-7.39263
-7.40535
-7.41646
-7.42589
-7.43495
-7.44439
-7.45408
-7.4636
-7.4727
-7.48104
-7.48812
-7.49374
-7.49826
-7.50185
-7.50443
-7.50589
-7.50616
-7.50522
-7.50304
-7.49962
-7.49502
-7.48932
-7.48265
-7.47519
-7.46718
-7.45893
-7.45083
-7.44331
-7.43687
-7.43199
-7.42916
-7.42881
-7.43129
-7.43688
-7.44574
-7.45794
-7.47348
-7.49227
-7.51417
-7.53898
-7.56648
-7.59642
-7.62855
-7.66258
-7.69819
-7.73508
-7.77297
-7.81158
-7.85066
-7.88997
-7.92932
-7.96855
-8.00755
-8.04621
-8.08449
-8.12234
-8.15976
-8.19672
-8.23326
-8.26937
-8.30503
-8.34018
-8.37476
-8.40863
-8.4416
-8.47345
-8.50386
-8.53241
-8.55861
-8.58204
-8.60254
-8.62006
-8.63424
-8.6446
-8.65089
-8.65346
-8.65286
-8.64911
-8.64197
-8.63121
-8.61662
-8.59803
-8.57552
-8.54934
-8.51973
-8.48672
-8.45032
-8.41039
-8.36686
-8.3197
-8.26892
-8.21449
-8.15623
-8.09394
-8.02735
-7.95615
-7.8801
-7.79899
-7.71264
-7.62078
-7.52319
-7.41957
-7.30971
-7.19334
-7.0703
-6.94044
-6.80366
-6.65985
-6.50892
-6.35083
-6.18553
-6.01302
-5.8333
-5.64645
-5.45254
-5.25174
-5.04419
-4.83014
-4.6098
-4.38348
-4.15142
-3.914
-3.6715
-3.42435
-3.1729
-2.91758
-2.65876
-2.39689
-2.13233
-1.86551
-1.59679
-1.32655
-1.05519
-0.783133
-0.510725
-0.238317
0.0337561
0.305177
0.575662
0.844935
1.11275
1.37884
1.64301
1.90502
2.16468
2.42177
2.67613
2.92756
3.17594
3.42115
3.66311
3.9017
4.1368
4.36826
4.59598
4.81986
5.03984
5.25586
5.46788
5.67594
5.88016
6.08049
6.2765
6.46806
6.65549
6.83891
7.01837
7.19392
7.36567
7.53372
7.69781
7.85759
8.0131
8.16399
8.31109
8.44925
8.59671
8.67661
-7.33992
-7.34622
-7.35938
-7.3741
-7.38565
-7.39542
-7.40552
-7.41619
-7.42701
-7.43765
-7.44789
-7.45734
-7.46538
-7.47178
-7.47699
-7.48126
-7.48448
-7.48649
-7.48719
-7.48652
-7.48443
-7.48092
-7.47602
-7.46982
-7.46248
-7.45424
-7.44537
-7.43625
-7.42733
-7.4191
-7.41206
-7.40674
-7.40359
-7.40304
-7.40545
-7.41107
-7.42009
-7.43257
-7.44851
-7.46784
-7.49042
-7.51606
-7.54456
-7.57563
-7.60897
-7.64423
-7.68104
-7.71909
-7.75803
-7.79758
-7.83744
-7.87739
-7.91721
-7.95673
-7.99583
-8.03444
-8.0725
-8.11001
-8.14697
-8.18341
-8.21939
-8.25492
-8.29002
-8.32468
-8.35882
-8.39234
-8.42505
-8.45671
-8.48694
-8.5151
-8.54049
-8.56252
-8.58149
-8.59814
-8.61242
-8.62356
-8.63087
-8.63426
-8.63402
-8.63033
-8.62314
-8.61229
-8.59764
-8.57908
-8.5568
-8.53101
-8.50161
-8.46854
-8.43188
-8.39169
-8.34793
-8.30061
-8.2498
-8.19542
-8.1373
-8.07522
-8.0089
-7.93804
-7.86238
-7.78173
-7.69586
-7.6045
-7.50737
-7.40422
-7.29477
-7.1788
-7.05612
-6.92661
-6.79013
-6.64657
-6.49585
-6.33792
-6.17275
-6.00031
-5.82062
-5.63374
-5.43978