/*--------------------------------*- C++ -*----------------------------------*\
  =========                 |
  \\      /  F ield         | OpenFOAM: The Open Source CFD Toolbox
   \\    /   O peration     | Website:  https://openfoam.org
    \\  /    A nd           | Version:  13
     \\/     M anipulation  |
\*---------------------------------------------------------------------------*/
FoamFile
{
    format      ascii;
    class       surfaceScalarField;
    location    "2000";
    object      phi;
}
// * * * * * * * * * * * * * * * * * * * * * * * * * * * * * * * * * * * * * //

dimensions      [0 3 -1 0 0 0 0];

internalField   nonuniform List<scalar> 
24170
(
3.04023e-06
1.48185e-07
2.88013e-06
1.60151e-07
2.7341e-06
1.45998e-07
2.60279e-06
1.31333e-07
2.48609e-06
1.16687e-07
2.3864e-06
9.96418e-08
2.29948e-06
8.69589e-08
2.22512e-06
7.42723e-08
2.18043e-06
4.46756e-08
2.2162e-06
-3.58289e-08
2.23719e-06
-2.10661e-08
2.19413e-06
4.29855e-08
2.14356e-06
5.05053e-08
2.0995e-06
4.4022e-08
2.06544e-06
3.40182e-08
2.04191e-06
2.34937e-08
2.02698e-06
1.48905e-08
6.75387e-09
2.02021e-06
3.49545e-06
6.99936e-08
3.5451e-06
1.10502e-07
3.57435e-06
1.16718e-07
3.58709e-06
1.18594e-07
3.58541e-06
1.18345e-07
3.57758e-06
1.07391e-07
3.55917e-06
1.05392e-07
3.5294e-06
1.04002e-07
3.49691e-06
7.71379e-08
3.40106e-06
5.99933e-08
3.3197e-06
6.02757e-08
3.30591e-06
5.6749e-08
3.29411e-06
6.22875e-08
3.27957e-06
5.85552e-08
3.26162e-06
5.19502e-08
3.24073e-06
4.43583e-08
3.21879e-06
3.68037e-08
2.87447e-08
3.19677e-06
3.67829e-06
5.42298e-08
3.69436e-06
9.45128e-08
3.71071e-06
1.0031e-07
3.72775e-06
1.01541e-07
3.74308e-06
1.02962e-07
3.76324e-06
8.71472e-08
3.78088e-06
8.77571e-08
3.78918e-06
9.56706e-08
3.79305e-06
7.33363e-08
3.78177e-06
7.13269e-08
3.77168e-06
7.03705e-08
3.77056e-06
5.78662e-08
3.77392e-06
5.89164e-08
3.77638e-06
5.60866e-08
3.77692e-06
5.14091e-08
3.77548e-06
4.57975e-08
3.77241e-06
3.98768e-08
3.30838e-08
3.7681e-06
3.93555e-06
4.408e-08
3.94577e-06
8.43363e-08
3.95252e-06
9.35471e-08
3.95903e-06
9.5045e-08
3.96219e-06
9.97921e-08
3.97026e-06
7.90613e-08
3.97695e-06
8.10637e-08
3.98169e-06
9.09222e-08
3.98599e-06
6.90701e-08
3.99133e-06
6.60029e-08
3.99818e-06
6.35181e-08
4.00093e-06
5.51305e-08
4.00615e-06
5.37037e-08
4.01152e-06
5.07214e-08
4.01643e-06
4.65011e-08
4.02069e-06
4.15361e-08
4.02434e-06
3.62315e-08
3.04012e-08
4.02702e-06
4.21364e-06
3.75792e-08
4.226e-06
7.202e-08
4.2327e-06
8.68046e-08
4.23916e-06
8.85753e-08
4.24807e-06
9.08327e-08
4.25451e-06
7.25868e-08
4.25123e-06
8.43405e-08
4.25366e-06
8.84891e-08
4.25682e-06
6.5996e-08
4.26023e-06
6.26529e-08
4.26463e-06
5.91379e-08
4.2668e-06
5.29713e-08
4.27028e-06
5.02335e-08
4.27404e-06
4.69686e-08
4.27762e-06
4.2921e-08
4.28086e-06
3.8301e-08
4.28372e-06
3.3384e-08
2.81178e-08
4.28603e-06
4.51547e-06
3.12069e-08
4.52588e-06
6.16151e-08
4.53343e-06
7.92771e-08
4.53994e-06
8.21045e-08
4.54825e-06
8.25266e-08
4.55109e-06
6.97671e-08
4.55742e-06
7.8013e-08
4.56562e-06
8.02956e-08
4.56593e-06
6.57211e-08
4.56794e-06
6.06536e-08
4.57059e-06
5.64774e-08
4.57218e-06
5.13831e-08
4.57447e-06
4.79425e-08
4.57704e-06
4.43917e-08
4.57956e-06
4.03988e-08
4.58185e-06
3.60194e-08
4.58379e-06
3.14509e-08
2.68279e-08
4.58507e-06
4.83961e-06
2.4326e-08
4.84447e-06
5.6759e-08
4.85188e-06
7.18558e-08
4.85903e-06
7.49446e-08
4.86634e-06
7.51869e-08
4.8674e-06
6.86705e-08
4.8732e-06
7.22049e-08
4.88147e-06
7.2037e-08
4.88432e-06
6.29203e-08
4.8873e-06
5.77119e-08
4.8904e-06
5.33953e-08
4.89287e-06
4.89103e-08
4.89559e-06
4.52327e-08
4.89839e-06
4.15887e-08
4.90108e-06
3.77111e-08
4.9035e-06
3.36026e-08
4.90555e-06
2.94064e-08
2.53182e-08
4.90709e-06
5.18485e-06
1.90597e-08
5.18999e-06
5.16292e-08
5.19763e-06
6.42434e-08
5.20449e-06
6.81059e-08
5.21089e-06
6.88043e-08
5.21392e-06
6.56603e-08
5.21934e-06
6.67995e-08
5.22597e-06
6.54291e-08
5.22969e-06
5.92231e-08
5.23304e-06
5.43758e-08
5.23627e-06
5.01626e-08
5.23913e-06
4.60467e-08
5.24201e-06
4.2352e-08
5.24486e-06
3.87281e-08
5.24757e-06
3.50022e-08
5.25001e-06
3.11619e-08
5.25212e-06
2.73175e-08
2.3609e-08
5.25383e-06
5.55465e-06
1.57594e-08
5.56129e-06
4.50033e-08
5.56866e-06
5.68666e-08
5.57524e-06
6.15191e-08
5.58128e-06
6.27436e-08
5.58555e-06
6.13752e-08
5.59091e-06
6.14331e-08
5.59674e-06
5.96099e-08
5.60096e-06
5.50344e-08
5.60464e-06
5.07237e-08
5.60806e-06
4.67502e-08
5.61119e-06
4.29244e-08
5.61421e-06
3.93338e-08
5.61712e-06
3.58168e-08
5.61985e-06
3.22733e-08
5.62231e-06
2.8701e-08
5.62446e-06
2.51722e-08
2.18122e-08
5.62629e-06
5.95214e-06
1.33983e-08
5.95905e-06
3.81217e-08
5.96588e-06
5.00531e-08
5.97237e-06
5.5046e-08
5.97838e-06
5.67412e-08
5.98342e-06
5.63521e-08
5.9889e-06
5.59707e-08
5.99445e-06
5.40828e-08
5.99902e-06
5.04912e-08
6.00302e-06
4.67336e-08
6.00668e-06
4.30912e-08
6.01005e-06
3.95548e-08
6.01323e-06
3.61491e-08
6.01623e-06
3.28076e-08
6.01902e-06
2.94817e-08
6.02155e-06
2.61778e-08
6.02378e-06
2.29567e-08
1.98895e-08
6.02571e-06
6.37892e-06
1.12997e-08
6.38495e-06
3.21054e-08
6.39152e-06
4.34882e-08
6.39793e-06
4.86336e-08
6.40398e-06
5.06796e-08
6.40948e-06
5.08532e-08
6.41511e-06
5.03446e-08
6.42061e-06
4.85888e-08
6.42545e-06
4.56759e-08
6.42976e-06
4.24341e-08
6.43369e-06
3.91626e-08
6.43732e-06
3.59267e-08
6.4407e-06
3.27665e-08
6.44385e-06
2.96505e-08
6.44675e-06
2.65754e-08
6.44938e-06
2.35506e-08
6.45171e-06
2.06196e-08
1.78552e-08
6.45377e-06
5.74244e-06
9.69758e-09
5.74689e-06
2.76723e-08
5.75216e-06
3.82254e-08
5.75749e-06
4.33087e-08
5.76264e-06
4.55303e-08
5.76751e-06
4.59866e-08
5.77235e-06
4.55059e-08
5.77702e-06
4.39294e-08
5.78127e-06
4.14438e-08
5.78512e-06
3.85891e-08
5.78866e-06
3.56265e-08
5.79192e-06
3.26729e-08
5.79494e-06
2.97373e-08
5.79774e-06
2.6856e-08
5.80031e-06
2.40056e-08
5.80263e-06
2.12302e-08
5.80471e-06
1.85508e-08
1.60305e-08
5.80655e-06
6.99981e-06
8.04775e-09
7.00437e-06
2.31206e-08
7.01006e-06
3.25455e-08
7.01599e-06
3.73869e-08
7.02185e-06
3.96637e-08
7.02754e-06
4.03012e-08
7.03315e-06
3.98977e-08
7.03854e-06
3.8541e-08
7.04354e-06
3.64515e-08
7.04813e-06
3.39892e-08
7.05239e-06
3.13921e-08
7.05631e-06
2.87403e-08
7.05996e-06
2.61074e-08
7.06332e-06
2.3491e-08
7.06641e-06
2.09316e-08
7.0692e-06
1.84336e-08
7.07173e-06
1.60474e-08
1.37946e-08
7.07397e-06
8.53252e-06
6.38188e-09
8.53714e-06
1.84984e-08
8.54317e-06
2.65288e-08
8.54965e-06
3.0893e-08
8.55623e-06
3.30815e-08
8.56275e-06
3.37809e-08
8.56916e-06
3.3483e-08
8.57535e-06
3.23592e-08
8.58116e-06
3.06431e-08
8.58657e-06
2.85864e-08
8.5916e-06
2.63654e-08
8.59629e-06
2.40762e-08
8.60062e-06
2.17761e-08
8.60464e-06
1.94912e-08
8.60831e-06
1.72555e-08
8.61168e-06
1.50885e-08
8.61471e-06
1.30172e-08
1.10847e-08
8.61745e-06
1.04009e-05
4.73017e-09
1.04055e-05
1.38615e-08
1.04118e-05
2.02378e-08
1.04188e-05
2.38694e-08
1.04261e-05
2.57689e-08
1.04335e-05
2.64257e-08
1.04408e-05
2.62025e-08
1.04478e-05
2.53198e-08
1.04545e-05
2.39525e-08
1.04608e-05
2.23031e-08
1.04667e-05
2.04825e-08
1.04722e-05
1.85992e-08
1.04773e-05
1.66735e-08
1.0482e-05
1.47786e-08
1.04864e-05
1.29068e-08
1.04904e-05
1.11173e-08
1.0494e-05
9.39571e-09
7.80868e-09
1.04973e-05
1.26784e-05
3.09893e-09
1.26831e-05
9.21567e-09
1.26896e-05
1.37025e-08
1.26972e-05
1.63066e-08
1.27052e-05
1.77136e-08
1.27135e-05
1.81802e-08
1.27217e-05
1.79944e-08
1.27297e-05
1.73125e-08
1.27374e-05
1.62877e-08
1.27446e-05
1.50325e-08
1.27515e-05
1.3654e-08
1.27579e-05
1.21951e-08
1.27639e-05
1.07237e-08
1.27694e-05
9.24815e-09
1.27745e-05
7.81833e-09
1.27792e-05
6.42909e-09
1.27835e-05
5.12187e-09
3.90262e-09
1.27873e-05
1.54548e-05
1.46386e-09
1.54596e-05
4.48484e-09
1.54664e-05
6.83046e-09
1.54746e-05
8.1239e-09
1.54835e-05
8.79892e-09
1.54928e-05
8.93679e-09
1.55021e-05
8.70128e-09
1.55112e-05
8.18687e-09
1.552e-05
7.47798e-09
1.55284e-05
6.63688e-09
1.55364e-05
5.71802e-09
1.55438e-05
4.75463e-09
1.55508e-05
3.77808e-09
1.55572e-05
2.80559e-09
1.55632e-05
1.8576e-09
1.55687e-05
9.44447e-10
1.55737e-05
8.07536e-11
-7.04993e-10
1.55783e-05
1.88394e-05
-2.54217e-10
1.88444e-05
-5.68993e-10
1.8852e-05
-6.93995e-10
1.88611e-05
-1.01065e-09
1.88712e-05
-1.30045e-09
1.88818e-05
-1.63495e-09
1.88925e-05
-1.9974e-09
1.89031e-05
-2.37239e-09
1.89133e-05
-2.7583e-09
1.89231e-05
-3.14933e-09
1.89323e-05
-3.54505e-09
1.89411e-05
-3.94234e-09
1.89492e-05
-4.33885e-09
1.89567e-05
-4.73129e-09
1.89637e-05
-5.11543e-09
1.89701e-05
-5.48592e-09
1.8976e-05
-5.83673e-09
-6.13597e-09
1.89815e-05
2.29654e-05
-2.26101e-09
2.29713e-05
-6.54812e-09
2.29803e-05
-9.67015e-09
2.29913e-05
-1.19573e-08
2.30034e-05
-1.34135e-08
2.30161e-05
-1.43357e-08
2.3029e-05
-1.48392e-08
2.30416e-05
-1.50428e-08
2.30539e-05
-1.50147e-08
2.30656e-05
-1.48467e-08
2.30766e-05
-1.45841e-08
2.3087e-05
-1.42806e-08
2.30966e-05
-1.39573e-08
2.31055e-05
-1.36444e-08
2.31137e-05
-1.33453e-08
2.31213e-05
-1.3074e-08
2.31283e-05
-1.28224e-08
-1.25643e-08
2.31347e-05
1.68124e-05
-3.96506e-09
1.68174e-05
-1.14844e-08
1.68247e-05
-1.69844e-08
1.68334e-05
-2.06857e-08
1.68429e-05
-2.294e-08
1.68528e-05
-2.41932e-08
1.68627e-05
-2.47345e-08
1.68724e-05
-2.47003e-08
1.68816e-05
-2.42903e-08
1.68904e-05
-2.36083e-08
1.68986e-05
-2.27916e-08
1.69062e-05
-2.18878e-08
1.69132e-05
-2.09842e-08
1.69197e-05
-2.009e-08
1.69256e-05
-1.92637e-08
1.69311e-05
-1.84852e-08
1.6936e-05
-1.77892e-08
-1.71069e-08
1.69406e-05
1.46364e-05
-5.80312e-09
1.46416e-05
-1.66742e-08
1.46491e-05
-2.4428e-08
1.46577e-05
-2.93177e-08
1.46669e-05
-3.21276e-08
1.46763e-05
-3.35937e-08
1.46856e-05
-3.40237e-08
1.46946e-05
-3.36864e-08
1.47031e-05
-3.28006e-08
1.47111e-05
-3.15826e-08
1.47184e-05
-3.01648e-08
1.47252e-05
-2.86622e-08
1.47314e-05
-2.71514e-08
1.4737e-05
-2.57019e-08
1.47421e-05
-2.4344e-08
1.47467e-05
-2.31084e-08
1.47509e-05
-2.19831e-08
-2.09438e-08
1.47547e-05
1.27423e-05
-7.93674e-09
1.2748e-05
-2.2417e-08
1.27558e-05
-3.22473e-08
1.27645e-05
-3.80102e-08
1.27736e-05
-4.11633e-08
1.27827e-05
-4.26597e-08
1.27915e-05
-4.28727e-08
1.27999e-05
-4.21048e-08
1.28078e-05
-4.06876e-08
1.28151e-05
-3.88734e-08
1.28218e-05
-3.6827e-08
1.28278e-05
-3.46883e-08
1.28332e-05
-3.25604e-08
1.2838e-05
-3.05427e-08
1.28424e-05
-2.86705e-08
1.28462e-05
-2.69891e-08
1.28497e-05
-2.54823e-08
-2.41113e-08
1.28529e-05
1.10936e-05
-1.05608e-08
1.11001e-05
-2.89927e-08
1.11084e-05
-4.04949e-08
1.11172e-05
-4.67845e-08
1.1126e-05
-4.99998e-08
1.11347e-05
-5.13607e-08
1.1143e-05
-5.12018e-08
1.11509e-05
-4.99188e-08
1.11581e-05
-4.79148e-08
1.11647e-05
-4.5476e-08
1.11706e-05
-4.27787e-08
1.1176e-05
-3.99831e-08
1.11806e-05
-3.72378e-08
1.11847e-05
-3.46332e-08
1.11883e-05
-3.22715e-08
1.11915e-05
-3.01551e-08
1.11943e-05
-2.83123e-08
-2.66395e-08
1.11969e-05
9.65844e-06
-1.37826e-08
9.66626e-06
-3.6808e-08
9.67485e-06
-4.90753e-08
9.68341e-06
-5.53386e-08
9.69181e-06
-5.83997e-08
9.69992e-06
-5.94686e-08
9.70758e-06
-5.88567e-08
9.71468e-06
-5.70192e-08
9.7212e-06
-5.444e-08
9.72713e-06
-5.1393e-08
9.73242e-06
-4.80649e-08
9.73705e-06
-4.46194e-08
9.74108e-06
-4.12407e-08
9.74451e-06
-3.80774e-08
9.74746e-06
-3.52069e-08
9.75e-06
-3.27003e-08
9.75224e-06
-3.05448e-08
-2.86209e-08
9.75422e-06
8.4093e-06
-1.77294e-08
8.4185e-06
-4.60083e-08
8.42715e-06
-5.77229e-08
8.43503e-06
-6.32072e-08
8.44278e-06
-6.61474e-08
8.4503e-06
-6.69777e-08
8.45733e-06
-6.58885e-08
8.46381e-06
-6.34987e-08
8.46975e-06
-6.03706e-08
8.47512e-06
-5.67685e-08
8.47988e-06
-5.28152e-08
8.48398e-06
-4.87181e-08
8.48744e-06
-4.47082e-08
8.49032e-06
-4.09441e-08
8.49268e-06
-3.75716e-08
8.49466e-06
-3.46669e-08
8.49636e-06
-3.22383e-08
-3.00451e-08
8.49778e-06
7.32278e-06
-2.32213e-08
7.33238e-06
-5.56113e-08
7.34086e-06
-6.61897e-08
7.34818e-06
-7.05268e-08
7.3554e-06
-7.33681e-08
7.36237e-06
-7.39402e-08
7.36885e-06
-7.23676e-08
7.37482e-06
-6.94605e-08
7.38029e-06
-6.58415e-08
7.38526e-06
-6.17326e-08
7.38966e-06
-5.72154e-08
7.3934e-06
-5.2457e-08
7.39649e-06
-4.77915e-08
7.39898e-06
-4.34327e-08
7.40094e-06
-3.95315e-08
7.40254e-06
-3.62654e-08
7.40393e-06
-3.36263e-08
-3.12749e-08
7.40517e-06
6.37802e-06
-3.11777e-08
6.38782e-06
-6.54088e-08
6.39588e-06
-7.42486e-08
6.403e-06
-7.76553e-08
6.41004e-06
-8.0393e-08
6.41683e-06
-8.07229e-08
6.42322e-06
-7.8758e-08
6.4293e-06
-7.55409e-08
6.43511e-06
-7.16514e-08
6.4406e-06
-6.72237e-08
6.44567e-06
-6.2278e-08
6.45014e-06
-5.69344e-08
6.45402e-06
-5.16761e-08
6.45736e-06
-4.67642e-08
6.46021e-06
-4.23822e-08
6.46273e-06
-3.87736e-08
6.46505e-06
-3.59497e-08
-3.36546e-08
6.46746e-06
5.56035e-06
-4.60605e-08
5.57334e-06
-7.84009e-08
5.58483e-06
-8.57433e-08
5.59854e-06
-9.13724e-08
5.61355e-06
-9.53934e-08
5.6289e-06
-9.60703e-08
5.64403e-06
-9.38887e-08
5.65859e-06
-9.01024e-08
5.67227e-06
-8.53303e-08
5.68476e-06
-7.97203e-08
5.69582e-06
-7.33288e-08
5.70518e-06
-6.63017e-08
5.7129e-06
-5.93865e-08
5.71896e-06
-5.28169e-08
5.72337e-06
-4.67849e-08
5.72643e-06
-4.18402e-08
5.72831e-06
-3.78002e-08
-3.45989e-08
5.72925e-06
4.88453e-06
-1.02982e-07
4.93503e-06
-1.28902e-07
4.97926e-06
-1.29981e-07
5.01376e-06
-1.25877e-07
5.03741e-06
-1.19036e-07
5.05159e-06
-1.10248e-07
5.058e-06
-1.00299e-07
5.05793e-06
-9.0033e-08
5.05269e-06
-8.01001e-08
5.04376e-06
-7.07843e-08
5.03194e-06
-6.14991e-08
5.01749e-06
-5.18563e-08
5.00017e-06
-4.20589e-08
4.98059e-06
-3.32278e-08
4.95934e-06
-2.55331e-08
4.93615e-06
-1.86382e-08
4.9115e-06
-1.31487e-08
-9.30777e-09
4.88624e-06
4.09969e-06
3.97079e-06
3.84081e-06
3.71493e-06
3.5959e-06
3.48565e-06
3.38535e-06
3.29532e-06
3.21522e-06
3.14444e-06
3.08294e-06
3.03108e-06
2.98902e-06
2.9558e-06
2.93027e-06
2.91163e-06
2.89849e-06
2.88918e-06
-7.63831e-09
7.63003e-09
-2.09154e-08
1.32767e-08
-3.55656e-08
1.46331e-08
-4.84074e-08
1.2848e-08
-5.48396e-08
6.40953e-09
-4.90068e-08
-5.81546e-09
-2.85163e-08
-2.05272e-08
4.84522e-09
-3.33427e-08
4.72396e-08
-4.24354e-08
9.43446e-08
-4.70876e-08
1.41662e-07
-4.73524e-08
1.8619e-07
-4.45147e-08
2.25776e-07
-3.96151e-08
2.59213e-07
-3.34278e-08
2.85682e-07
-2.64931e-08
3.04814e-07
-1.91251e-08
3.16267e-07
-1.14766e-08
3.19812e-07
-3.53796e-09
3.15151e-07
4.6403e-09
3.02376e-07
1.27856e-08
2.81855e-07
2.05035e-08
2.54436e-07
2.74328e-08
2.21225e-07
3.31985e-08
1.83863e-07
3.73792e-08
1.44336e-07
3.95164e-08
1.05125e-07
3.92305e-08
6.87794e-08
3.63328e-08
3.7752e-08
3.10494e-08
1.35547e-08
2.41824e-08
-3.45249e-09
1.70321e-08
-1.42501e-08
1.07768e-08
-1.97369e-08
5.51524e-09
-2.02745e-08
5.1245e-10
-1.51489e-08
-5.08416e-09
-3.14003e-09
-1.20582e-08
1.74318e-08
-2.0528e-08
4.60276e-08
-2.86532e-08
7.89094e-08
-3.28484e-08
1.10034e-07
-3.11762e-08
1.3455e-07
-2.44948e-08
1.49548e-07
-1.50349e-08
1.55232e-07
-5.66811e-09
1.54298e-07
9.09351e-10
1.50564e-07
3.75933e-09
1.47466e-07
3.06629e-09
1.46794e-07
7.21198e-10
1.43065e-07
3.6614e-09
1.28132e-07
1.5002e-08
9.3967e-08
3.40623e-08
3.42011e-08
5.98262e-08
-5.05286e-08
8.4632e-08
-1.54079e-07
1.03598e-07
-2.7332e-07
1.19174e-07
-4.05335e-07
1.32037e-07
-5.46738e-07
1.41343e-07
-6.90744e-07
1.44012e-07
-8.34705e-07
1.43912e-07
-9.76664e-07
1.41961e-07
-1.11227e-06
1.3556e-07
-1.24009e-06
1.27825e-07
-1.35904e-06
1.18914e-07
-1.46872e-06
1.09676e-07
-1.56934e-06
1.00581e-07
-1.66081e-06
9.14729e-08
-1.74459e-06
8.37411e-08
-1.82158e-06
7.69983e-08
-1.89237e-06
7.07513e-08
-1.95759e-06
6.52296e-08
-2.01806e-06
6.04388e-08
-2.07429e-06
5.6234e-08
-2.12687e-06
5.25522e-08
-2.17618e-06
4.93148e-08
-2.22265e-06
4.64406e-08
-2.26652e-06
4.38807e-08
-2.30811e-06
4.15658e-08
-2.34755e-06
3.94657e-08
-2.3851e-06
3.75291e-08
-2.42082e-06
3.57378e-08
-2.45489e-06
3.40556e-08
-2.48736e-06
3.24752e-08
-2.51835e-06
3.09708e-08
-2.54789e-06
2.95379e-08
-2.57606e-06
2.81586e-08
-2.6029e-06
2.68295e-08
-2.62845e-06
2.55375e-08
-2.65275e-06
2.42797e-08
-2.67581e-06
2.30491e-08
-2.69765e-06
2.18379e-08
-2.71828e-06
2.06395e-08
-2.73768e-06
1.94518e-08
-2.75589e-06
1.82586e-08
-2.7729e-06
1.70548e-08
-2.7887e-06
1.58327e-08
-2.80326e-06
1.45856e-08
-2.81655e-06
1.33061e-08
-2.82851e-06
1.1989e-08
-2.83911e-06
1.06214e-08
-2.84827e-06
9.19443e-09
-2.85593e-06
7.68775e-09
-2.86197e-06
6.08855e-09
-2.86631e-06
4.37321e-09
-2.86882e-06
2.5456e-09
-2.86948e-06
6.78408e-10
-2.86844e-06
-1.04632e-09
-2.86587e-06
-2.58047e-09
-2.86185e-06
-4.05826e-09
-2.85636e-06
-5.52333e-09
-2.8494e-06
-7.0138e-09
-2.84093e-06
-8.5133e-09
-2.83093e-06
-1.00427e-08
-2.81938e-06
-1.15778e-08
-2.80628e-06
-1.31399e-08
-2.7916e-06
-1.47014e-08
-2.77534e-06
-1.62838e-08
-2.75747e-06
-1.78574e-08
-2.73804e-06
-1.94433e-08
-2.717e-06
-2.10148e-08
-2.69439e-06
-2.25895e-08
-2.6702e-06
-2.41437e-08
-2.64447e-06
-2.56895e-08
-2.61721e-06
-2.72112e-08
-2.58848e-06
-2.87169e-08
-2.55826e-06
-3.01923e-08
-2.5266e-06
-3.16434e-08
-2.4935e-06
-3.30558e-08
-2.45901e-06
-3.44335e-08
-2.42317e-06
-3.57694e-08
-2.38603e-06
-3.70601e-08
-2.34763e-06
-3.83076e-08
-2.30801e-06
-3.95157e-08
-2.26725e-06
-4.06728e-08
-2.22536e-06
-4.17739e-08
-2.18246e-06
-4.28267e-08
-2.13856e-06
-4.38025e-08
-2.09377e-06
-4.47294e-08
-2.04816e-06
-4.55541e-08
-2.00184e-06
-4.63121e-08
-1.95473e-06
-4.71193e-08
-1.90682e-06
-4.79926e-08
-1.85821e-06
-4.87361e-08
-1.80895e-06
-4.94123e-08
-1.75909e-06
-5.00197e-08
-1.70868e-06
-5.05641e-08
-1.65778e-06
-5.10515e-08
-1.60645e-06
-5.14851e-08
-1.55473e-06
-5.18701e-08
-1.50266e-06
-5.22063e-08
-1.45031e-06
-5.24973e-08
-1.3977e-06
-5.27436e-08
-1.34488e-06
-5.29478e-08
-1.2919e-06
-5.31076e-08
-1.2388e-06
-5.32249e-08
-1.18562e-06
-5.32953e-08
-1.13241e-06
-5.33192e-08
-1.07922e-06
-5.32977e-08
-1.02608e-06
-5.32328e-08
-9.73039e-07
-5.31279e-08
-9.20127e-07
-5.2992e-08
-8.67372e-07
-5.28253e-08
-8.14797e-07
-5.26378e-08
-7.62418e-07
-5.243e-08
-7.10253e-07
-5.22119e-08
-6.58308e-07
-5.19799e-08
-6.06594e-07
-5.17439e-08
-5.55117e-07
-5.14954e-08
-5.03887e-07
-5.12438e-08
-4.52905e-07
-5.0984e-08
-4.02176e-07
-5.07284e-08
-3.51692e-07
-5.04704e-08
-3.0145e-07
-5.02247e-08
-2.51448e-07
-4.99726e-08
-2.01697e-07
-4.97184e-08
-1.5222e-07
-4.94305e-08
-1.03117e-07
-4.90513e-08
-5.45889e-08
-4.84575e-08
-7.12866e-09
-4.73842e-08
3.85983e-08
-4.56344e-08
8.09879e-08
-4.23113e-08
1.19849e-07
-3.8786e-08
-1.57593e-08
1.35643e-07
-3.44697e-09
1.10586e-08
-9.59046e-09
1.94146e-08
-1.29328e-08
1.79276e-08
-6.90416e-09
6.82251e-09
1.3592e-08
-1.4136e-08
4.83946e-08
-4.0613e-08
9.34906e-08
-6.56538e-08
1.43825e-07
-8.3672e-08
1.94311e-07
-9.29434e-08
2.41571e-07
-9.4342e-08
2.83963e-07
-8.9762e-08
3.20722e-07
-8.12688e-08
3.51603e-07
-7.05108e-08
3.76781e-07
-5.86025e-08
3.96509e-07
-4.62343e-08
4.11176e-07
-3.37897e-08
4.2114e-07
-2.14544e-08
4.26925e-07
-9.32135e-09
4.28929e-07
2.62423e-09
4.27236e-07
1.44812e-08
4.21455e-07
2.62748e-08
4.11051e-07
3.78402e-08
3.95408e-07
4.88342e-08
3.74084e-07
5.87096e-08
3.46861e-07
6.67339e-08
3.14033e-07
7.2064e-08
2.76472e-07
7.38876e-08
2.35848e-07
7.16843e-08
1.94584e-07
6.54373e-08
1.55943e-07
5.56897e-08
1.23462e-07
4.32411e-08
1.00237e-07
2.87714e-08
8.80972e-08
1.26248e-08
8.78481e-08
-4.79825e-09
9.86609e-08
-2.29066e-08
1.1833e-07
-4.01658e-08
1.41517e-07
-5.18717e-08
1.61727e-07
-5.30339e-08
1.74266e-07
-4.374e-08
1.77804e-07
-2.80141e-08
1.7246e-07
-9.71632e-09
1.59583e-07
7.22597e-09
1.40875e-07
1.95688e-08
1.12462e-07
3.22014e-08
6.44976e-08
5.09494e-08
-1.2334e-08
7.7563e-08
-1.20657e-07
1.11922e-07
-2.53358e-07
1.47698e-07
-4.00771e-07
1.81447e-07
-5.54003e-07
2.13052e-07
-7.09582e-07
2.40195e-07
-8.66059e-07
2.60074e-07
-1.01992e-06
2.73019e-07
-1.1671e-06
2.79212e-07
-1.30404e-06
2.78268e-07
-1.43014e-06
2.70106e-07
-1.54329e-06
2.57044e-07
-1.64285e-06
2.41518e-07
-1.73106e-06
2.23755e-07
-1.80875e-06
2.05509e-07
-1.87761e-06
1.87755e-07
-1.93897e-06
1.71036e-07
-1.99414e-06
1.55729e-07
-2.04452e-06
1.41853e-07
-2.09062e-06
1.29823e-07
-2.13306e-06
1.19436e-07
-2.17267e-06
1.10347e-07
-2.20989e-06
1.02438e-07
-2.24502e-06
9.55605e-08
-2.27833e-06
8.95368e-08
-2.31001e-06
8.42266e-08
-2.34021e-06
7.95057e-08
-2.36905e-06
7.52639e-08
-2.39659e-06
7.1417e-08
-2.42291e-06
6.78871e-08
-2.44807e-06
6.46199e-08
-2.4721e-06
6.15618e-08
-2.49504e-06
5.8679e-08
-2.51693e-06
5.59367e-08
-2.53777e-06
5.33148e-08
-2.5576e-06
5.07899e-08
-2.57641e-06
4.83487e-08
-2.59424e-06
4.59744e-08
-2.61107e-06
4.36572e-08
-2.62693e-06
4.13844e-08
-2.6418e-06
3.91486e-08
-2.65571e-06
3.694e-08
-2.66862e-06
3.47479e-08
-2.68053e-06
3.25669e-08
-2.69142e-06
3.03822e-08
-2.70131e-06
2.81865e-08
-2.7102e-06
2.59693e-08
-2.71806e-06
2.37191e-08
-2.72489e-06
2.14312e-08
-2.73066e-06
1.90928e-08
-2.73535e-06
1.66975e-08
-2.73895e-06
1.42331e-08
-2.74143e-06
1.17003e-08
-2.74282e-06
9.09855e-09
-2.74315e-06
6.4428e-09
-2.74249e-06
3.7431e-09
-2.74095e-06
1.02847e-09
-2.73859e-06
-1.68192e-09
-2.73523e-06
-4.41379e-09
-2.73063e-06
-7.20753e-09
-2.72466e-06
-1.0055e-08
-2.71727e-06
-1.29475e-08
-2.70843e-06
-1.58868e-08
-2.69812e-06
-1.8868e-08
-2.6863e-06
-2.1891e-08
-2.67296e-06
-2.49471e-08
-2.65808e-06
-2.80355e-08
-2.64166e-06
-3.11444e-08
-2.62368e-06
-3.42723e-08
-2.60414e-06
-3.74047e-08
-2.58304e-06
-4.05407e-08
-2.56038e-06
-4.36662e-08
-2.53616e-06
-4.67775e-08
-2.51041e-06
-4.98617e-08
-2.48315e-06
-5.29166e-08
-2.45441e-06
-5.59301e-08
-2.42421e-06
-5.89015e-08
-2.39257e-06
-6.18167e-08
-2.35953e-06
-6.46734e-08
-2.32509e-06
-6.74573e-08
-2.28932e-06
-7.01681e-08
-2.25224e-06
-7.27949e-08
-2.21391e-06
-7.53366e-08
-2.17436e-06
-7.77866e-08
-2.13367e-06
-8.01435e-08
-2.09187e-06
-8.24006e-08
-2.04902e-06
-8.45566e-08
-2.00516e-06
-8.6611e-08
-1.96036e-06
-8.85535e-08
-1.91464e-06
-9.0398e-08
-1.86803e-06
-9.21345e-08
-1.82055e-06
-9.37789e-08
-1.77231e-06
-9.53783e-08
-1.72344e-06
-9.69182e-08
-1.67394e-06
-9.83298e-08
-1.62384e-06
-9.9616e-08
-1.57319e-06
-1.00783e-07
-1.52202e-06
-1.01827e-07
-1.47041e-06
-1.02765e-07
-1.4184e-06
-1.03594e-07
-1.36604e-06
-1.04331e-07
-1.31338e-06
-1.04969e-07
-1.26045e-06
-1.05524e-07
-1.2073e-06
-1.05986e-07
-1.15397e-06
-1.06371e-07
-1.10049e-06
-1.06668e-07
-1.04691e-06
-1.06885e-07
-9.93278e-07
-1.07009e-07
-9.39628e-07
-1.07045e-07
-8.86004e-07
-1.06991e-07
-8.32446e-07
-1.06855e-07
-7.78992e-07
-1.06641e-07
-7.25674e-07
-1.06363e-07
-6.7252e-07
-1.06027e-07
-6.19554e-07
-1.05645e-07
-5.66793e-07
-1.05227e-07
-5.14251e-07
-1.04783e-07
-4.61938e-07
-1.04319e-07
-4.0986e-07
-1.03839e-07
-3.58024e-07
-1.03346e-07
-3.06433e-07
-1.02839e-07
-2.55087e-07
-1.02331e-07
-2.03985e-07
-1.01822e-07
-1.5312e-07
-1.01325e-07
-1.02482e-07
-1.0084e-07
-5.20631e-08
-1.00366e-07
-1.89003e-09
-9.98547e-08
4.79861e-08
-9.92672e-08
9.75092e-08
-9.85227e-08
1.4658e-07
-9.74726e-08
1.95048e-07
-9.57843e-08
2.42469e-07
-9.29862e-08
2.88385e-07
-8.81556e-08
3.29781e-07
-8.01168e-08
-5.52729e-08
3.69349e-07
3.15187e-10
1.07207e-08
3.48848e-09
1.62213e-08
1.65581e-08
4.81416e-09
4.73052e-08
-2.39318e-08
9.50684e-08
-6.19234e-08
1.51444e-07
-9.6987e-08
2.06863e-07
-1.21089e-07
2.55574e-07
-1.32379e-07
2.95506e-07
-1.32888e-07
3.27053e-07
-1.25885e-07
3.51586e-07
-1.14306e-07
3.70598e-07
-1.00276e-07
3.85225e-07
-8.51477e-08
3.96322e-07
-6.96968e-08
4.04417e-07
-5.43388e-08
4.09909e-07
-3.92803e-08
4.13057e-07
-2.4612e-08
4.14114e-07
-1.03781e-08
4.13325e-07
3.40466e-09
4.11042e-07
1.67642e-08
4.07546e-07
2.97634e-08
4.02967e-07
4.24195e-08
3.97135e-07
5.46609e-08
3.89587e-07
6.62587e-08
3.79544e-07
7.67706e-08
3.66094e-07
8.55155e-08
3.48398e-07
9.15781e-08
3.26166e-07
9.39187e-08
3.00001e-07
9.15959e-08
2.71685e-07
8.40106e-08
2.43874e-07
7.10462e-08
2.19547e-07
5.31092e-08
2.01052e-07
3.11129e-08
1.89828e-07
6.44228e-09
1.85202e-07
-1.82895e-08
1.82437e-07
-3.73832e-08
1.74289e-07
-4.37324e-08
1.57364e-07
-3.60945e-08
1.3176e-07
-1.81507e-08
9.82621e-08
5.4954e-09
5.52428e-08
3.32724e-08
-2.41162e-09
6.48746e-08
-8.2091e-08
9.92144e-08
-1.86963e-07
1.37059e-07
-3.14573e-07
1.78539e-07
-4.58673e-07
2.21651e-07
-6.0999e-07
2.63224e-07
-7.62443e-07
3.00144e-07
-9.11352e-07
3.30344e-07
-1.0512e-06
3.52891e-07
-1.17851e-06
3.67495e-07
-1.29229e-06
3.73852e-07
-1.39183e-06
3.72557e-07
-1.47703e-06
3.64405e-07
-1.54916e-06
3.5039e-07
-1.61094e-06
3.31872e-07
-1.66466e-06
3.10754e-07
-1.71187e-06
2.88728e-07
-1.75477e-06
2.66644e-07
-1.79463e-06
2.45364e-07
-1.83237e-06
2.25482e-07
-1.8686e-06
2.07257e-07
-1.9037e-06
1.90823e-07
-1.93798e-06
1.7613e-07
-1.97135e-06
1.63183e-07
-2.00375e-06
1.51836e-07
-2.03526e-06
1.41842e-07
-2.06585e-06
1.33025e-07
-2.09551e-06
1.25219e-07
-2.12424e-06
1.18258e-07
-2.15202e-06
1.12005e-07
-2.17886e-06
1.06336e-07
-2.20475e-06
1.01148e-07
-2.2297e-06
9.63548e-08
-2.2537e-06
9.18833e-08
-2.27676e-06
8.7676e-08
-2.29888e-06
8.36844e-08
-2.32008e-06
7.98713e-08
-2.34035e-06
7.62053e-08
-2.3597e-06
7.26633e-08
-2.37814e-06
6.92244e-08
-2.39567e-06
6.58728e-08
-2.41229e-06
6.25932e-08
-2.42801e-06
5.93738e-08
-2.44284e-06
5.62025e-08
-2.45676e-06
5.3069e-08
-2.46979e-06
4.99626e-08
-2.48192e-06
4.68737e-08
-2.49313e-06
4.37885e-08
-2.50341e-06
4.06991e-08
-2.51278e-06
3.75883e-08
-2.52124e-06
3.44447e-08
-2.52876e-06
3.12602e-08
-2.53534e-06
2.80205e-08
-2.54096e-06
2.47197e-08
-2.5456e-06
2.13437e-08
-2.54924e-06
1.78902e-08
-2.55188e-06
1.4352e-08
-2.55351e-06
1.0738e-08
-2.5541e-06
7.05136e-09
-2.55365e-06
3.30323e-09
-2.55211e-06
-5.03828e-10
-2.54942e-06
-4.37996e-09
-2.5455e-06
-8.35284e-09
-2.54029e-06
-1.24408e-08
-2.53375e-06
-1.66246e-08
-2.52583e-06
-2.08972e-08
-2.5165e-06
-2.52444e-08
-2.50574e-06
-2.96655e-08
-2.4935e-06
-3.41462e-08
-2.47979e-06
-3.86855e-08
-2.46457e-06
-4.3267e-08
-2.44785e-06
-4.78876e-08
-2.42959e-06
-5.25294e-08
-2.40982e-06
-5.71869e-08
-2.38851e-06
-6.18424e-08
-2.36569e-06
-6.64877e-08
-2.34134e-06
-7.11053e-08
-2.31549e-06
-7.56867e-08
-2.28816e-06
-8.0219e-08
-2.25938e-06
-8.46931e-08
-2.22918e-06
-8.9097e-08
-2.19758e-06
-9.34188e-08
-2.16459e-06
-9.76449e-08
-2.13026e-06
-1.01765e-07
-2.09463e-06
-1.0577e-07
-2.05774e-06
-1.09651e-07
-2.01963e-06
-1.13402e-07
-1.98035e-06
-1.17015e-07
-1.93996e-06
-1.20484e-07
-1.89851e-06
-1.23804e-07
-1.85604e-06
-1.26977e-07
-1.8126e-06
-1.29997e-07
-1.76826e-06
-1.32861e-07
-1.72304e-06
-1.35576e-07
-1.67701e-06
-1.3815e-07
-1.6302e-06
-1.40585e-07
-1.5827e-06
-1.429e-07
-1.53458e-06
-1.4508e-07
-1.48588e-06
-1.47096e-07
-1.43662e-06
-1.48943e-07
-1.38684e-06
-1.50616e-07
-1.33659e-06
-1.52122e-07
-1.28593e-06
-1.53468e-07
-1.2349e-06
-1.54664e-07
-1.18355e-06
-1.55718e-07
-1.13192e-06
-1.56635e-07
-1.08005e-06
-1.57422e-07
-1.02798e-06
-1.58085e-07
-9.75751e-07
-1.58626e-07
-9.23397e-07
-1.59047e-07
-8.70955e-07
-1.59346e-07
-8.18467e-07
-1.59518e-07
-7.6597e-07
-1.59558e-07
-7.13506e-07
-1.59471e-07
-6.61111e-07
-1.59262e-07
-6.0882e-07
-1.58944e-07
-5.56663e-07
-1.58528e-07
-5.04667e-07
-1.5803e-07
-4.52853e-07
-1.57462e-07
-4.01239e-07
-1.56844e-07
-3.49837e-07
-1.56186e-07
-2.98655e-07
-1.55501e-07
-2.47697e-07
-1.54796e-07
-1.96966e-07
-1.54075e-07
-1.46464e-07
-1.5334e-07
-9.61855e-08
-1.52607e-07
-4.61246e-08
-1.51882e-07
3.72931e-09
-1.51177e-07
5.33807e-08
-1.50493e-07
1.02847e-07
-1.49833e-07
1.52151e-07
-1.49162e-07
2.013e-07
-1.48419e-07
2.50261e-07
-1.4749e-07
2.98968e-07
-1.46183e-07
3.47304e-07
-1.44124e-07
3.95047e-07
-1.40729e-07
4.41902e-07
-1.35012e-07
4.87032e-07
-1.25253e-07
-1.01872e-07
5.33612e-07
-1.68155e-10
1.08608e-08
1.15872e-08
4.43783e-09
4.80811e-08
-3.17158e-08
1.06714e-07
-8.25673e-08
1.71778e-07
-1.27005e-07
2.29297e-07
-1.54503e-07
2.72991e-07
-1.64795e-07
3.03085e-07
-1.62469e-07
3.22706e-07
-1.52519e-07
3.35388e-07
-1.38562e-07
3.43792e-07
-1.22718e-07
3.49617e-07
-1.06098e-07
3.53726e-07
-8.9265e-08
3.56546e-07
-7.25134e-08
3.58202e-07
-5.60036e-08
3.58759e-07
-3.98363e-08
3.58219e-07
-2.40804e-08
3.56632e-07
-8.79074e-09
3.54046e-07
5.98282e-09
3.50593e-07
2.02171e-08
3.4645e-07
3.38994e-08
3.4186e-07
4.70089e-08
3.37009e-07
5.95059e-08
3.31984e-07
7.12828e-08
3.26641e-07
8.21088e-08
3.20572e-07
9.15828e-08
3.13096e-07
9.90474e-08
3.03438e-07
1.03577e-07
2.90979e-07
1.04048e-07
2.75638e-07
9.93537e-08
2.57928e-07
8.87494e-08
2.3911e-07
7.19363e-08
2.20551e-07
4.96658e-08
2.0247e-07
2.454e-08
1.80899e-07
3.27544e-09
1.49386e-07
-5.85443e-09
1.05896e-07
-2.53779e-10
5.15849e-08
1.82258e-08
-1.4407e-08
4.78247e-08
-9.53368e-08
8.64205e-08
-1.93095e-07
1.31013e-07
-3.07142e-07
1.78912e-07
-4.35558e-07
2.27616e-07
-5.73772e-07
2.75265e-07
-7.15366e-07
3.20122e-07
-8.54039e-07
3.60319e-07
-9.84108e-07
3.93285e-07
-1.10137e-06
4.17402e-07
-1.20392e-06
4.32891e-07
-1.29107e-06
4.4003e-07
-1.36311e-06
4.39529e-07
-1.42169e-06
4.32425e-07
-1.46895e-06
4.19814e-07
-1.50742e-06
4.02871e-07
-1.53982e-06
3.82779e-07
-1.5687e-06
3.60742e-07
-1.59589e-06
3.37938e-07
-1.62247e-06
3.15301e-07
-1.64925e-06
2.93412e-07
-1.67658e-06
2.72694e-07
-1.70455e-06
2.53439e-07
-1.73305e-06
2.35761e-07
-1.76194e-06
2.19707e-07
-1.79104e-06
2.05222e-07
-1.8201e-06
1.92239e-07
-1.8489e-06
1.80638e-07
-1.87732e-06
1.7025e-07
-1.90521e-06
1.60921e-07
-1.93251e-06
1.52506e-07
-1.95912e-06
1.44865e-07
-1.985e-06
1.37877e-07
-2.0101e-06
1.31432e-07
-2.0344e-06
1.25439e-07
-2.05786e-06
1.19818e-07
-2.08049e-06
1.14503e-07
-2.10226e-06
1.09442e-07
-2.12317e-06
1.04589e-07
-2.14321e-06
9.99096e-08
-2.16239e-06
9.53764e-08
-2.18069e-06
9.09668e-08
-2.19813e-06
8.66621e-08
-2.21471e-06
8.24469e-08
-2.23043e-06
7.83073e-08
-2.24529e-06
7.4231e-08
-2.25929e-06
7.02061e-08
-2.27245e-06
6.62217e-08
-2.28476e-06
6.22663e-08
-2.29621e-06
5.83268e-08
-2.3068e-06
5.43927e-08
-2.31652e-06
5.04431e-08
-2.32538e-06
4.64701e-08
-2.33337e-06
4.24535e-08
-2.34048e-06
3.83819e-08
-2.34669e-06
3.42408e-08
-2.35199e-06
3.00199e-08
-2.35634e-06
2.57059e-08
-2.35974e-06
2.12933e-08
-2.36215e-06
1.6774e-08
-2.36356e-06
1.21512e-08
-2.36392e-06
7.42142e-09
-2.36321e-06
2.58677e-09
-2.36136e-06
-2.35991e-09
-2.35832e-06
-7.43091e-09
-2.35406e-06
-1.26414e-08
-2.34853e-06
-1.79969e-08
-2.3417e-06
-2.34831e-08
-2.33353e-06
-2.90915e-08
-2.32399e-06
-3.48063e-08
-2.31306e-06
-4.06225e-08
-2.3007e-06
-4.65223e-08
-2.2869e-06
-5.25015e-08
-2.27165e-06
-5.85392e-08
-2.25492e-06
-6.46301e-08
-2.2367e-06
-7.07503e-08
-2.217e-06
-7.68928e-08
-2.19581e-06
-8.30328e-08
-2.17312e-06
-8.91587e-08
-2.14896e-06
-9.52472e-08