/*--------------------------------*- C++ -*----------------------------------*\
  =========                 |
  \\      /  F ield         | OpenFOAM: The Open Source CFD Toolbox
   \\    /   O peration     | Website:  https://openfoam.org
    \\  /    A nd           | Version:  13
     \\/     M anipulation  |
\*---------------------------------------------------------------------------*/
FoamFile
{
    format      ascii;
    class       volVectorField;
    location    "2000";
    object      U;
}
// * * * * * * * * * * * * * * * * * * * * * * * * * * * * * * * * * * * * * //

dimensions      [0 1 -1 0 0 0 0];

internalField   nonuniform List<vector> 
12225
(
(9.7502 0.0528911 0)
(9.2743 0.10125 0)
(8.80784 0.106568 0)
(8.36218 0.0941373 0)
(7.97261 0.0776454 0)
(7.63443 0.0643673 0)
(7.33982 0.0655087 0)
(7.08504 0.0607304 0)
(6.89774 0.0315041 0)
(6.73227 -0.0259137 0)
(7.15492 0.00432927 0)
(6.94697 0.0478316 0)
(6.79781 0.0413792 0)
(6.6473 0.0343816 0)
(6.52344 0.0277877 0)
(6.43234 0.024849 0)
(6.37596 0.0239177 0)
(6.34385 0.0162338 0)
(10.1092 0.0560163 0)
(10.3107 0.0915609 0)
(10.4351 0.094705 0)
(10.4899 0.0956096 0)
(10.5032 0.0959742 0)
(10.4867 0.0889304 0)
(10.4529 0.083376 0)
(10.3744 0.0799098 0)
(10.2864 0.0626505 0)
(10.1682 0.0708066 0)
(9.75063 0.0553502 0)
(9.69026 0.0273838 0)
(9.65767 0.0378562 0)
(9.62122 0.0372181 0)
(9.57286 0.0323503 0)
(9.51664 0.0255141 0)
(9.45155 0.0190984 0)
(9.38688 0.0143569 0)
(10.0071 0.0463378 0)
(10.0576 0.0686376 0)
(10.1115 0.0713182 0)
(10.1555 0.074698 0)
(10.1987 0.0801801 0)
(10.2481 0.0761068 0)
(10.3007 0.080807 0)
(10.3362 0.0877702 0)
(10.3529 0.0708679 0)
(10.3645 0.0410254 0)
(10.2919 0.0540014 0)
(10.296 0.0785435 0)
(10.3001 0.083925 0)
(10.3082 0.081406 0)
(10.3128 0.0759592 0)
(10.3116 0.0683045 0)
(10.3055 0.0596018 0)
(10.2951 0.0489507 0)
(10.0049 0.0290023 0)
(10.0349 0.0545738 0)
(10.062 0.0629735 0)
(10.0791 0.0676944 0)
(10.0895 0.0733378 0)
(10.1101 0.0794349 0)
(10.1109 0.0631703 0)
(10.1425 0.0545134 0)
(10.1489 0.0461153 0)
(10.1619 0.0473542 0)
(10.1767 0.0482078 0)
(10.1888 0.0428049 0)
(10.1991 0.0467675 0)
(10.2125 0.0476785 0)
(10.2257 0.0464796 0)
(10.2377 0.043778 0)
(10.2478 0.0400574 0)
(10.2566 0.0350289 0)
(10.0041 0.0256503 0)
(10.0251 0.0538501 0)
(10.0532 0.0641243 0)
(10.0704 0.0679302 0)
(10.0814 0.0727327 0)
(10.1155 0.0229932 0)
(10.1087 0.0670585 0)
(10.102 0.117754 0)
(10.1154 0.0821291 0)
(10.1223 0.0784805 0)
(10.1315 0.0752934 0)
(10.1392 0.0681259 0)
(10.146 0.0662049 0)
(10.1545 0.0633586 0)
(10.1632 0.0594403 0)
(10.1715 0.0547008 0)
(10.1788 0.0493981 0)
(10.1852 0.0433178 0)
(10.0029 0.0214037 0)
(10.0222 0.0394159 0)
(10.0465 0.0542055 0)
(10.0626 0.0586435 0)
(10.0779 0.0625427 0)
(10.0858 0.0727943 0)
(10.1071 0.0697797 0)
(10.1144 0.0504421 0)
(10.1258 0.0488371 0)
(10.1284 0.0488543 0)
(10.1335 0.0487598 0)
(10.1381 0.0464433 0)
(10.1424 0.0462014 0)
(10.1478 0.0452827 0)
(10.1535 0.0433343 0)
(10.1589 0.0404645 0)
(10.1636 0.0368957 0)
(10.1673 0.0326413 0)
(10.0078 0.0183615 0)
(10.0184 0.0381933 0)
(10.0297 0.0516924 0)
(10.048 0.0563271 0)
(10.0624 0.0588862 0)
(10.0705 0.0542296 0)
(10.078 0.0576455 0)
(10.0927 0.0623867 0)
(10.104 0.0547605 0)
(10.11 0.0524662 0)
(10.1162 0.050777 0)
(10.1219 0.0483123 0)
(10.1273 0.0468283 0)
(10.133 0.0450852 0)
(10.1387 0.0427222 0)
(10.1441 0.039723 0)
(10.1487 0.036232 0)
(10.1524 0.0324124 0)
(10.0049 0.0137738 0)
(10.0139 0.0370171 0)
(10.0261 0.0470979 0)
(10.042 0.0513321 0)
(10.0546 0.0537408 0)
(10.0634 0.0522444 0)
(10.0716 0.0560422 0)
(10.0834 0.0575855 0)
(10.0933 0.0533382 0)
(10.1001 0.050959 0)
(10.1064 0.0490142 0)
(10.1122 0.0468032 0)
(10.1178 0.0449589 0)
(10.1233 0.0429255 0)
(10.1287 0.0404604 0)
(10.1337 0.0375277 0)
(10.1381 0.0342371 0)
(10.1418 0.0307747 0)
(10.002 0.0108609 0)
(10.01 0.0325997 0)
(10.0241 0.0420295 0)
(10.0374 0.0466719 0)
(10.0487 0.049185 0)
(10.0578 0.0494202 0)
(10.0665 0.0518188 0)
(10.0767 0.0525674 0)
(10.0857 0.0500563 0)
(10.0928 0.0479498 0)
(10.0991 0.0460561 0)
(10.105 0.044041 0)
(10.1106 0.0421023 0)
(10.1159 0.0400035 0)
(10.121 0.0375897 0)
(10.1257 0.0348303 0)
(10.1299 0.0318119 0)
(10.1335 0.0286853 0)
(10.0009 0.00915321 0)
(10.0081 0.0262638 0)
(10.0206 0.0363036 0)
(10.0326 0.041498 0)
(10.0432 0.0443988 0)
(10.0523 0.0456062 0)
(10.0612 0.0473876 0)
(10.0705 0.0477926 0)
(10.079 0.046222 0)
(10.0862 0.0444835 0)
(10.0926 0.0427157 0)
(10.0985 0.0408427 0)
(10.104 0.0389225 0)
(10.1092 0.0368451 0)
(10.1141 0.0345233 0)
(10.1186 0.0319498 0)
(10.1226 0.0291869 0)
(10.1261 0.026348 0)
(10.0007 0.00773231 0)
(10.0067 0.0227295 0)
(10.0172 0.0317802 0)
(10.028 0.0368173 0)
(10.0379 0.0398072 0)
(10.0469 0.0414254 0)
(10.0557 0.0428322 0)
(10.0644 0.0431186 0)
(10.0726 0.0420906 0)
(10.0797 0.0406666 0)
(10.0862 0.039082 0)
(10.0921 0.0373583 0)
(10.0976 0.0355257 0)
(10.1027 0.0335314 0)
(10.1075 0.0313424 0)
(10.1118 0.0289586 0)
(10.1157 0.0264336 0)
(10.1191 0.0238544 0)
(10.0006 0.00661189 0)
(10.0056 0.0195036 0)
(10.0144 0.0278325 0)
(10.0242 0.0327206 0)
(10.0335 0.0357292 0)
(10.0422 0.0374931 0)
(10.0507 0.0386586 0)
(10.059 0.0388766 0)
(10.0668 0.0381451 0)
(10.0739 0.0369625 0)
(10.0803 0.0355432 0)
(10.0862 0.0339561 0)
(10.0917 0.0322198 0)
(10.0967 0.0303316 0)
(10.1014 0.0282724 0)
(10.1057 0.0260661 0)
(10.1095 0.023747 0)
(10.1129 0.0213983 0)
(10.0005 0.0055687 0)
(10.0047 0.0165722 0)
(10.0122 0.0240737 0)
(10.021 0.028641 0)
(10.0296 0.0315367 0)
(10.0379 0.033302 0)
(10.046 0.0343627 0)
(10.0539 0.0345891 0)
(10.0613 0.0340442 0)
(10.0682 0.0330507 0)
(10.0745 0.0317958 0)
(10.0803 0.030354 0)
(10.0858 0.0287536 0)
(10.0908 0.0270044 0)
(10.0954 0.0251081 0)
(10.0996 0.0230875 0)
(10.1034 0.0209815 0)
(10.1068 0.0188453 0)
(10.0004 0.00453081 0)
(10.0039 0.0135704 0)
(10.0102 0.0200695 0)
(10.0179 0.024197 0)
(10.0258 0.0268862 0)
(10.0335 0.0285448 0)
(10.0411 0.0294759 0)
(10.0485 0.029687 0)
(10.0556 0.0292778 0)
(10.0622 0.0284523 0)
(10.0683 0.0273613 0)
(10.074 0.0260679 0)
(10.0793 0.0246216 0)
(10.0842 0.0230261 0)
(10.0887 0.0213142 0)
(10.0928 0.0194954 0)
(10.0966 0.0176143 0)
(10.1 0.0157134 0)
(10.0003 0.00349655 0)
(10.0032 0.0105355 0)
(10.0085 0.0158524 0)
(10.0151 0.0193631 0)
(10.0222 0.0217088 0)
(10.0293 0.0231581 0)
(10.0364 0.0239342 0)
(10.0433 0.0241105 0)
(10.05 0.0237852 0)
(10.0562 0.0231018 0)
(10.0621 0.0221577 0)
(10.0676 0.0210272 0)
(10.0727 0.0197363 0)
(10.0774 0.0183259 0)
(10.0818 0.0168047 0)
(10.0858 0.0152134 0)
(10.0894 0.0135599 0)
(10.0927 0.0119143 0)
(10.0002 0.00246877 0)
(10.0026 0.00749255 0)
(10.007 0.0114638 0)
(10.0128 0.0141532 0)
(10.0191 0.0159855 0)
(10.0256 0.017105 0)
(10.0321 0.0176722 0)
(10.0385 0.0177722 0)
(10.0448 0.0174852 0)
(10.0507 0.0169062 0)
(10.0563 0.0161048 0)
(10.0615 0.0151346 0)
(10.0664 0.0140264 0)
(10.0709 0.0128138 0)
(10.0751 0.0115143 0)
(10.079 0.0101565 0)
(10.0825 0.00875607 0)
(10.0857 0.0073619 0)
(10.0002 0.00144156 0)
(10.0022 0.00442571 0)
(10.0059 0.00689381 0)
(10.0109 0.00855074 0)
(10.0166 0.0096856 0)
(10.0225 0.0103373 0)
(10.0286 0.010615 0)
(10.0346 0.0105734 0)
(10.0404 0.0102737 0)
(10.046 0.00976292 0)
(10.0513 0.00909299 0)
(10.0563 0.0082866 0)
(10.0609 0.00738275 0)
(10.0653 0.00638864 0)
(10.0693 0.00533791 0)
(10.073 0.00423224 0)
(10.0764 0.00310454 0)
(10.0795 0.00197966 0)
(10.0002 0.00038101 0)
(10.0019 0.00124011 0)
(10.0052 0.00201879 0)
(10.0097 0.00243109 0)
(10.0149 0.0026684 0)
(10.0205 0.00270452 0)
(10.0262 0.00258186 0)
(10.0319 0.0023241 0)
(10.0374 0.00195155 0)
(10.0428 0.00148058 0)
(10.0478 0.000927162 0)
(10.0526 0.000301396 0)
(10.0571 -0.000384527 0)
(10.0612 -0.00112358 0)
(10.0651 -0.00190458 0)
(10.0687 -0.00272001 0)
(10.0719 -0.0035577 0)
(10.0749 -0.00437883 0)
(10.0002 -0.000800654 0)
(10.0018 -0.00231644 0)
(10.005 -0.00349328 0)
(10.0095 -0.00455867 0)
(10.0146 -0.00540417 0)
(10.0201 -0.00612607 0)
(10.0257 -0.00674121 0)
(10.0313 -0.0072759 0)
(10.0368 -0.00774789 0)
(10.042 -0.00818445 0)
(10.047 -0.00860077 0)
(10.0516 -0.00901677 0)
(10.056 -0.00944048 0)
(10.06 -0.0098848 0)
(10.0637 -0.0103503 0)
(10.0672 -0.0108426 0)
(10.0703 -0.0113553 0)
(10.0732 -0.0118529 0)
(10.0002 -0.00197596 0)
(10.0021 -0.0058387 0)
(10.0057 -0.00896257 0)
(10.0106 -0.0114582 0)
(10.0162 -0.013332 0)
(10.022 -0.0147522 0)
(10.0279 -0.01581 0)
(10.0338 -0.0165642 0)
(10.0394 -0.0170884 0)
(10.0448 -0.0174384 0)
(10.0499 -0.0176764 0)
(10.0546 -0.0178379 0)
(10.059 -0.0179693 0)
(10.063 -0.0180877 0)
(10.0666 -0.0182268 0)
(10.07 -0.0183862 0)
(10.0731 -0.0185857 0)
(10.0759 -0.0187714 0)
(10.0002 -0.00309411 0)
(10.0025 -0.00913028 0)
(10.0068 -0.0139693 0)
(10.0125 -0.01762 0)
(10.0188 -0.0202688 0)
(10.0252 -0.0221945 0)
(10.0316 -0.023536 0)
(10.0379 -0.024388 0)
(10.0439 -0.0248651 0)
(10.0496 -0.0250617 0)
(10.0548 -0.02507 0)
(10.0597 -0.0249492 0)
(10.0641 -0.0247676 0)
(10.0681 -0.0245624 0)
(10.0718 -0.0243814 0)
(10.0751 -0.0242375 0)
(10.0781 -0.0241514 0)
(10.0808 -0.0240753 0)
(10.0003 -0.00434674 0)
(10.0033 -0.0126591 0)
(10.0086 -0.0191541 0)
(10.0155 -0.0237977 0)
(10.0226 -0.0270532 0)
(10.0298 -0.0293532 0)
(10.0368 -0.0308634 0)
(10.0436 -0.0317184 0)
(10.0501 -0.032064 0)
(10.056 -0.0320434 0)
(10.0615 -0.0317572 0)
(10.0665 -0.0313031 0)
(10.071 -0.030755 0)
(10.075 -0.0301946 0)
(10.0786 -0.0296629 0)
(10.0818 -0.029212 0)
(10.0847 -0.0288406 0)
(10.0873 -0.0285255 0)
(10.0004 -0.00584228 0)
(10.0045 -0.0166744 0)
(10.0113 -0.0246603 0)
(10.0195 -0.0300527 0)
(10.0276 -0.0337539 0)
(10.0355 -0.0363014 0)
(10.0432 -0.0378594 0)
(10.0505 -0.038602 0)
(10.0574 -0.0387384 0)
(10.0636 -0.0384345 0)
(10.0693 -0.0378002 0)
(10.0744 -0.0369468 0)
(10.0789 -0.0359884 0)
(10.0828 -0.0350185 0)
(10.0863 -0.0341177 0)
(10.0893 -0.0333292 0)
(10.092 -0.032682 0)
(10.0944 -0.0321176 0)
(10.0006 -0.00765902 0)
(10.0062 -0.0214053 0)
(10.0153 -0.0304817 0)
(10.0247 -0.0363447 0)
(10.0336 -0.0402381 0)
(10.0421 -0.0428877 0)
(10.0503 -0.0443723 0)
(10.058 -0.0449031 0)
(10.065 -0.0447533 0)
(10.0715 -0.0441081 0)
(10.0773 -0.0430872 0)
(10.0825 -0.0418081 0)
(10.0869 -0.0404115 0)
(10.0908 -0.0390235 0)
(10.0941 -0.0377522 0)
(10.0969 -0.0366581 0)
(10.0994 -0.0357774 0)
(10.1015 -0.0350173 0)
(10.0009 -0.00982438 0)
(10.0085 -0.0269106 0)
(10.0206 -0.0364104 0)
(10.0308 -0.0422207 0)
(10.0401 -0.046156 0)
(10.0489 -0.0487506 0)
(10.0576 -0.0501265 0)
(10.0658 -0.0504908 0)
(10.0732 -0.0501093 0)
(10.0799 -0.0491635 0)
(10.0859 -0.0477476 0)
(10.0912 -0.0459967 0)
(10.0957 -0.0440903 0)
(10.0995 -0.0421906 0)
(10.1026 -0.0404408 0)
(10.1051 -0.0389566 0)
(10.1073 -0.0377783 0)
(10.1091 -0.0367343 0)
(10.0019 -0.0127019 0)
(10.0122 -0.0327257 0)
(10.0263 -0.0422276 0)
(10.0377 -0.0478207 0)
(10.0474 -0.0518271 0)
(10.0567 -0.0543867 0)
(10.066 -0.0555668 0)
(10.0747 -0.0556937 0)
(10.0825 -0.0551342 0)
(10.0896 -0.053994 0)
(10.096 -0.0523355 0)
(10.1016 -0.0502748 0)
(10.1063 -0.0480318 0)
(10.1101 -0.0457817 0)
(10.1131 -0.0437025 0)
(10.1155 -0.0419632 0)
(10.1175 -0.0406405 0)
(10.1192 -0.0394473 0)
(10.0035 -0.017513 0)
(10.0188 -0.037588 0)
(10.0341 -0.0460658 0)
(10.0472 -0.052279 0)
(10.0573 -0.0572771 0)
(10.0678 -0.0603024 0)
(10.0784 -0.0613035 0)
(10.0883 -0.0609906 0)
(10.0976 -0.0598955 0)
(10.1065 -0.058155 0)
(10.1148 -0.0557405 0)
(10.1223 -0.0528001 0)
(10.1289 -0.0497157 0)
(10.1345 -0.0467014 0)
(10.1394 -0.0439776 0)
(10.1436 -0.0418796 0)
(10.1474 -0.040455 0)
(10.1507 -0.0393165 0)
(10.0083 -0.0263899 0)
(10.0376 -0.0471458 0)
(10.0602 -0.0521197 0)
(10.0837 -0.0553553 0)
(10.1085 -0.060072 0)
(10.136 -0.0635619 0)
(10.1639 -0.0653115 0)
(10.191 -0.0660046 0)
(10.2165 -0.0659911 0)
(10.2403 -0.0651916 0)
(10.2616 -0.0633488 0)
(10.2801 -0.0605684 0)
(10.2955 -0.0573434 0)
(10.308 -0.0540916 0)
(10.3174 -0.0510411 0)
(10.324 -0.0484785 0)
(10.3286 -0.0465789 0)
(10.3308 -0.0453297 0)
(10.0452 -0.0371977 0)
(10.1678 -0.0673104 0)
(10.2757 -0.0749117 0)
(10.3566 -0.0788135 0)
(10.4146 -0.082015 0)
(10.4529 -0.083622 0)
(10.4741 -0.0834694 0)
(10.4803 -0.0821517 0)
(10.4742 -0.0800407 0)
(10.4587 -0.0771353 0)
(10.4371 -0.0733044 0)
(10.4098 -0.0683056 0)
(10.3774 -0.0628227 0)
(10.3382 -0.0571453 0)
(10.2963 -0.0515382 0)
(10.2503 -0.0467546 0)
(10.2003 -0.04275 0)
(10.1485 -0.0395139 0)
(9.8747 -0.0394103 0)
(9.60354 -0.0788794 0)
(9.30194 -0.0921586 0)
(8.99091 -0.094619 0)
(8.69536 -0.092373 0)
(8.42147 -0.0873754 0)
(8.17082 -0.0807096 0)
(7.94423 -0.073036 0)
(7.74213 -0.0647662 0)
(7.56267 -0.0567134 0)
(7.40433 -0.0489677 0)
(7.2695 -0.0408283 0)
(7.15699 -0.0319985 0)
(7.06897 -0.0237295 0)
(6.99863 -0.0161711 0)
(6.94688 -0.00866121 0)
(6.90983 -0.00208958 0)
(6.88526 0.00272682 0)
(-0.00263175 0.00702306 -7.91246e-19)
(-0.0120351 0.0119062 9.03305e-19)
(-0.0250513 0.0132354 -6.2636e-19)
(-0.0388619 0.0117127 -1.91655e-19)
(-0.0494129 0.00657712 2.96621e-19)
(-0.049747 -0.00223287 -7.3988e-20)
(-0.0357359 -0.0143294 -7.37338e-20)
(-0.0103797 -0.0273528 3.88568e-19)
(0.0233514 -0.0375784 -1.90295e-19)
(0.062563 -0.0429604 4.43389e-20)
(0.104531 -0.0439708 1.41596e-20)
(0.145937 -0.0416771 -1.51269e-19)
(0.184033 -0.037091 2.09661e-19)
(0.217081 -0.0309972 2.12963e-19)
(0.244162 -0.0239721 1.82582e-20)
(0.264806 -0.0163784 7.6762e-20)
(0.278705 -0.0084356 3.01884e-20)
(0.285887 -0.000134302 5.25185e-20)
(0.285734 0.0085084 7.82571e-20)
(0.277908 0.0171347 8.4616e-21)
(0.262965 0.0250796 -2.88771e-20)
(0.241489 0.0315898 2.46093e-19)
(0.214223 0.0359448 -3.30664e-20)
(0.182327 0.0375338 2.90229e-19)
(0.14739 0.0358683 -6.72918e-20)
(0.111444 0.030789 2.95778e-19)
(0.0768179 0.0226691 1.78628e-19)
(0.0459337 0.0127434 1.44371e-19)
(0.0208979 0.0032838 -7.36139e-19)
(0.00284865 -0.00311753 -1.67717e-19)
(-0.00898277 -0.00588024 -1.16057e-18)
(-0.0164049 -0.00695292 6.31935e-19)
(-0.0196722 -0.00803978 4.51348e-19)
(-0.0174239 -0.0102685 -5.57181e-19)
(-0.00941089 -0.0140231 -9.06806e-19)
(0.00591069 -0.019375 -5.43962e-20)
(0.0283867 -0.0249414 2.20042e-19)
(0.0562843 -0.0286057 3.94931e-19)
(0.0855356 -0.0283778 2.17542e-19)
(0.111348 -0.0240164 4.30502e-19)
(0.129914 -0.0168771 1.56484e-19)
(0.139683 -0.00920372 3.99981e-20)
(0.141642 -0.00316485 -5.34037e-19)
(0.138682 -0.000147001 -1.1078e-19)
(0.134971 -0.0007833 2.3237e-19)
(0.133329 -0.00580008 1.20789e-20)
(0.132037 -0.0150159 5.59891e-19)
(0.125232 -0.0249088 1.81295e-19)
(0.106036 -0.0258757 7.73811e-20)
(0.0692179 -0.00985075 -7.27794e-19)
(0.00213227 0.0127323 5.49822e-19)
(-0.0920003 0.0330121 3.11539e-20)
(-0.194116 0.0561013 2.78205e-19)
(-0.30824 0.0797607 1.62259e-19)
(-0.432246 0.0980593 5.19811e-20)
(-0.564227 0.101748 1.05412e-19)
(-0.699386 0.105404 1.24064e-19)
(-0.829203 0.110041 -1.22024e-19)
(-0.957552 0.106237 4.49512e-20)
(-1.07934 0.101762 4.76377e-20)
(-1.19281 0.0953341 -1.08259e-19)
(-1.29845 0.0878836 -6.81095e-20)
(-1.39548 0.0798115 5.1696e-20)
(-1.48466 0.0706297 6.0468e-20)
(-1.5659 0.0642193 1.66061e-20)
(-1.64061 0.0591605 -6.28488e-20)
(-1.70966 0.0539235 6.83381e-21)
(-1.77336 0.0492342 3.20586e-21)
(-1.83242 0.0452729 1.58887e-20)
(-1.88747 0.0417641 7.71586e-20)
(-1.939 0.0387224 -3.82335e-21)
(-1.98744 0.0360553 -5.52706e-20)
(-2.03316 0.0337041 5.93183e-20)
(-2.07646 0.0316232 2.15433e-20)
(-2.1176 0.0297584 -3.4752e-20)
(-2.15677 0.0280815 2.88046e-20)
(-2.19415 0.0265541 -4.4223e-21)
(-2.22988 0.0251585 5.52875e-20)
(-2.26408 0.0238678 2.54175e-20)
(-2.29684 0.0226734 -3.74635e-20)
(-2.32824 0.0215563 -1.06824e-20)
(-2.35835 0.0205111 2.10995e-21)
(-2.38721 0.0195245 4.18447e-20)
(-2.41488 0.0185937 5.18534e-20)
(-2.44139 0.0177089 4.55602e-20)
(-2.46678 0.0168669 -4.61467e-20)
(-2.49107 0.0160602 9.79615e-20)
(-2.51427 0.0152812 -3.8807e-21)
(-2.53639 0.0145227 6.98982e-20)
(-2.55742 0.0137777 -9.8776e-20)
(-2.57738 0.013033 -5.28487e-20)
(-2.59628 0.0122783 4.4315e-20)
(-2.6141 0.0115008 6.42736e-20)
(-2.63082 0.0106859 -9.72502e-21)
(-2.6464 0.00981842 -6.00901e-20)
(-2.6608 0.00888622 -5.95155e-20)
(-2.67399 0.00788292 6.08932e-20)
(-2.6859 0.00682028 -3.27224e-20)
(-2.69647 0.00572125 -7.78635e-20)
(-2.70563 0.00461407 -3.38523e-20)
(-2.71326 0.00351587 8.33794e-20)
(-2.71926 0.00245255 4.18177e-20)
(-2.7235 0.00146974 6.24554e-20)
(-2.72596 0.000624231 -3.81562e-20)
(-2.72701 -0.000115454 1.21448e-20)
(-2.72669 -0.00082925 4.21639e-21)
(-2.725 -0.00153404 -7.72613e-21)
(-2.72193 -0.0022492 -1.67302e-20)
(-2.71745 -0.00296686 -2.511e-20)
(-2.71153 -0.00369748 -4.08221e-20)
(-2.70414 -0.00442978 -5.58822e-20)
(-2.69528 -0.00517433 2.95534e-20)
(-2.68491 -0.00591812 -4.11987e-20)
(-2.67302 -0.00667197 -4.02393e-20)
(-2.65961 -0.00742236 7.07905e-20)
(-2.64465 -0.00818023 -4.17416e-21)
(-2.62816 -0.00893306 -4.52167e-20)
(-2.61012 -0.00968938 -4.70071e-20)
(-2.59054 -0.0104372 4.32546e-20)
(-2.56942 -0.0111821 3.22409e-21)
(-2.5468 -0.0119166 1.28914e-20)
(-2.52269 -0.0126458 -8.39892e-21)
(-2.4971 -0.0133629 -2.44006e-20)
(-2.47006 -0.0140716 2.0482e-20)
(-2.44157 -0.0147639 -1.7918e-20)
(-2.41165 -0.0154408 1.6017e-20)
(-2.38035 -0.0160941 2.13815e-20)
(-2.3477 -0.0167202 -7.44875e-21)
(-2.31374 -0.0173232 2.01438e-20)
(-2.2785 -0.0179293 -1.71537e-20)
(-2.24203 -0.0184911 3.95762e-20)
(-2.20439 -0.0190179 -3.23621e-21)
(-2.1656 -0.0194861 -3.60715e-20)
(-2.12575 -0.019859 7.52547e-21)
(-2.08488 -0.0200965 -1.4672e-21)
(-2.0431 -0.0200966 5.01867e-21)
(-2.00047 -0.0199051 1.73191e-21)
(-1.95701 -0.0199589 3.92598e-21)
(-1.91264 -0.0203517 4.1129e-21)
(-1.86743 -0.0206868 -1.50391e-21)
(-1.82144 -0.0209984 3.62432e-20)
(-1.77473 -0.0212798 3.77524e-20)
(-1.72732 -0.0215367 -2.25377e-20)
(-1.67928 -0.021772 -2.61958e-20)
(-1.63066 -0.0219881 -4.96229e-20)
(-1.5815 -0.0221872 -7.5611e-20)
(-1.53185 -0.0223696 -5.91473e-20)
(-1.48175 -0.0225369 -9.87035e-20)
(-1.43124 -0.0226894 5.00682e-20)
(-1.38036 -0.0228276 4.76191e-20)
(-1.32916 -0.0229505 8.37396e-20)
(-1.27766 -0.023059 6.3251e-20)
(-1.22592 -0.0231506 1.82357e-19)
(-1.17397 -0.0232274 1.25023e-20)
(-1.12187 -0.0232889 8.10679e-21)
(-1.06965 -0.023336 -1.42775e-19)
(-1.01735 -0.0233716 2.28126e-19)
(-0.965013 -0.0233984 -1.36731e-19)
(-0.912659 -0.0234161 1.91614e-20)
(-0.860313 -0.0234282 6.98088e-20)
(-0.807996 -0.0234346 2.56361e-20)
(-0.755721 -0.0234381 6.56473e-20)
(-0.7035 -0.0234377 3.1226e-19)
(-0.651339 -0.0234372 1.54514e-19)
(-0.599246 -0.0234343 7.31861e-20)
(-0.547227 -0.0234334 1.03909e-19)
(-0.495286 -0.0234351 2.93984e-19)
(-0.443424 -0.0234453 -1.28872e-20)
(-0.391638 -0.0234641 3.39872e-19)
(-0.339921 -0.0234981 4.91018e-19)
(-0.288267 -0.0235425 4.78215e-19)
(-0.236671 -0.023598 -1.74282e-20)
(-0.18515 -0.0236719 4.51675e-20)
(-0.133768 -0.0237503 -1.06934e-19)
(-0.082667 -0.02376 -1.34301e-18)
(-0.032176 -0.0235594 6.66014e-19)
(0.0173736 -0.0226924 4.75297e-19)
(0.0625817 -0.0207291 -8.87968e-19)
(0.112734 -0.0180123 -8.08517e-19)
(0.125054 -0.00678 1.18555e-18)
(-0.000387772 0.0191709 2.21436e-18)
(-0.0057238 0.0340276 -1.66739e-18)
(-0.0122101 0.0354953 -7.08264e-19)
(-0.0133521 0.027084 1.99923e-18)
(-0.00136273 0.00713913 4.36032e-19)
(0.0260772 -0.0270496 1.90245e-19)
(0.0630726 -0.0666893 -1.1857e-19)
(0.106012 -0.100289 -4.33653e-19)
(0.151043 -0.121935 -2.43294e-20)
(0.19475 -0.130733 -3.08179e-19)
(0.234825 -0.128874 1.63479e-20)
(0.270206 -0.119513 -4.24638e-21)
(0.300485 -0.105471 9.42747e-20)
(0.325619 -0.0888264 1.34849e-20)
(0.34578 -0.0709715 -2.9294e-20)
(0.361254 -0.052721 -2.45213e-19)
(0.372396 -0.0344856 -5.28897e-20)
(0.379424 -0.016435 2.31828e-19)
(0.383066 0.00141567 -2.70778e-19)
(0.383561 0.0190303 7.56083e-20)
(0.380597 0.0361547 6.86579e-21)
(0.373722 0.0523569 1.50626e-19)
(0.362397 0.0670098 1.78017e-19)
(0.346091 0.0792452 1.56208e-19)
(0.324457 0.0880061 2.11347e-19)
(0.297464 0.0922038 -1.27041e-19)
(0.26563 0.0909247 3.43783e-20)
(0.230146 0.0838725 4.79378e-20)
(0.19291 0.071661 -2.09643e-19)
(0.156477 0.0558512 -1.71915e-19)
(0.123826 0.0382599 -3.35738e-19)
(0.0980021 0.0202103 -1.26399e-19)
(0.0818327 0.00206095 -1.13158e-18)
(0.0762551 -0.0164324 4.98564e-19)
(0.0820165 -0.0348127 -6.39665e-19)
(0.0970906 -0.0532125 6.4029e-19)
(0.117791 -0.0685347 -5.0728e-19)
(0.138309 -0.0742742 1.18089e-19)
(0.153228 -0.0677288 2.65474e-19)
(0.160387 -0.0520648 -1.98714e-19)
(0.159612 -0.0324232 1.73316e-19)
(0.151635 -0.0146221 -7.68424e-20)
(0.137684 -0.00305934 -3.26313e-19)
(0.117614 0.00233919 -1.06156e-18)
(0.085581 0.00581839 -8.65289e-19)
(0.0332717 0.0163272 1.22706e-20)
(-0.0520807 0.0457402 -1.04546e-18)
(-0.168038 0.0874511 -1.76087e-19)
(-0.29719 0.131146 4.27743e-19)
(-0.432368 0.173927 4.86132e-19)
(-0.573712 0.21066 9.20939e-20)
(-0.717853 0.238417 -3.34199e-20)
(-0.860014 0.257957 -3.02865e-20)
(-0.998463 0.269546 -8.82396e-20)
(-1.12961 0.273255 -6.28219e-20)
(-1.25192 0.269307 -1.55246e-19)
(-1.36137 0.258966 -1.72891e-19)
(-1.45933 0.245052 -3.74513e-20)
(-1.54604 0.228017 2.40574e-20)
(-1.62236 0.209669 -1.18255e-19)
(-1.69038 0.191355 8.86492e-20)
(-1.75072 0.173844 -3.76243e-20)
(-1.80528 0.157708 -1.48709e-19)
(-1.8547 0.143017 1.13663e-20)
(-1.90006 0.130022 1.05799e-19)
(-1.94202 0.118636 -4.04918e-20)
(-1.98108 0.108689 4.45394e-21)
(-2.0178 0.100049 -9.28545e-20)
(-2.05258 0.0925426 3.18706e-20)
(-2.08563 0.0860071 -5.41723e-20)
(-2.11717 0.0802803 9.66497e-22)
(-2.14734 0.0752329 -6.66313e-20)
(-2.17626 0.0707388 2.15881e-21)
(-2.20401 0.066709 -3.93589e-20)
(-2.23067 0.0630517 5.20596e-20)
(-2.25628 0.0597104 -8.97343e-20)
(-2.28088 0.0566213 1.16705e-20)
(-2.30451 0.0537498 -9.04553e-20)
(-2.3272 0.0510534 3.55983e-21)
(-2.34896 0.0485129 7.1267e-20)
(-2.36982 0.046099 1.39712e-20)
(-2.38979 0.0437993 -4.17348e-20)
(-2.40887 0.041593 -6.23698e-20)
(-2.42708 0.0394718 3.57172e-20)
(-2.44441 0.0374213 1.0058e-19)
(-2.46088 0.0354358 -3.17975e-20)
(-2.47649 0.0335059 -1.06137e-21)
(-2.49122 0.0316227 -2.67336e-21)
(-2.50506 0.02978 6.40341e-20)
(-2.51799 0.0279698 2.24322e-19)
(-2.53002 0.0261829 4.87774e-20)
(-2.54115 0.0244133 9.13285e-20)
(-2.55137 0.0226538 -1.97839e-19)
(-2.56065 0.0208998 -9.5019e-20)
(-2.56899 0.0191403 6.17616e-20)
(-2.57635 0.017365 1.25467e-19)
(-2.58272 0.0155547 -6.89003e-20)
(-2.58808 0.0136985 -2.79726e-20)
(-2.59241 0.0117852 -4.81514e-20)
(-2.59575 0.0098193 6.99404e-20)
(-2.59814 0.00780403 -9.70779e-20)
(-2.59966 0.00576643 -7.29658e-20)
(-2.60041 0.00375469 -4.70349e-20)
(-2.60043 0.00183167 1.553e-19)
(-2.59934 -1.12658e-05 -1.7515e-20)
(-2.597 -0.0018282 1.0936e-20)
(-2.59335 -0.00363344 5.69606e-20)
(-2.58834 -0.00544231 1.2265e-19)
(-2.58194 -0.00724711 -1.67291e-20)
(-2.57412 -0.00905526 -4.69997e-20)
(-2.56486 -0.0108544 3.74005e-21)
(-2.55413 -0.0126518 -8.67251e-20)
(-2.54193 -0.0144324 9.38847e-20)
(-2.52822 -0.0162032 3.51147e-20)
(-2.51301 -0.0179478 2.75444e-20)
(-2.49628 -0.0196739 6.82553e-20)
(-2.47804 -0.0213669 8.17016e-20)
(-2.45827 -0.0230321 -4.24953e-20)
(-2.43698 -0.0246564 2.74395e-20)
(-2.41419 -0.0262435 3.94172e-20)
(-2.38993 -0.0277836 4.72627e-20)
(-2.3642 -0.0292802 -5.37985e-21)
(-2.33703 -0.0307233 -2.06579e-21)
(-2.30843 -0.0321158 -3.71404e-20)
(-2.27842 -0.0334477 -3.37998e-20)
(-2.24703 -0.0347226 -3.55295e-20)
(-2.2143 -0.0359348 3.40505e-20)
(-2.18025 -0.0370855 -4.68594e-21)
(-2.14493 -0.0381724 -1.88718e-20)
(-2.10839 -0.0391923 -3.78527e-21)
(-2.07067 -0.040151 -1.96282e-20)
(-2.03182 -0.0410464 -2.34777e-20)
(-1.99188 -0.0418855 -1.07717e-20)
(-1.95089 -0.0426699 4.74887e-21)
(-1.9089 -0.0434242 2.80219e-21)
(-1.86592 -0.0441466 2.14924e-21)
(-1.82197 -0.0448452 -1.44698e-22)
(-1.77711 -0.0454785 -7.66974e-21)
(-1.73146 -0.0460232 5.21605e-23)
(-1.68509 -0.0464795 1.80837e-20)
(-1.63798 -0.0468643 -1.44319e-20)
(-1.59019 -0.0471827 2.10327e-20)
(-1.54175 -0.0474356 1.05492e-20)
(-1.49271 -0.0476329 -2.25566e-20)
(-1.44313 -0.0477751 -7.5986e-21)
(-1.39303 -0.0478717 -4.05334e-20)
(-1.34248 -0.0479205 -2.61583e-20)
(-1.2915 -0.0479293 5.85795e-20)
(-1.24015 -0.0478962 9.72331e-20)
(-1.18844 -0.0478282 -1.3695e-19)
(-1.13643 -0.0477208 4.2869e-20)
(-1.08415 -0.0475791 8.63826e-21)
(-1.03163 -0.0473982 -2.4695e-19)
(-0.978924 -0.0471801 6.18202e-21)
(-0.926067 -0.0469263 3.95804e-21)
(-0.873098 -0.04664 -8.423e-20)
(-0.820055 -0.0463243 1.08402e-19)
(-0.76697 -0.0459872 1.54985e-19)
(-0.713874 -0.0456308 1.63723e-19)
(-0.66079 -0.0452622 1.4758e-19)
(-0.607738 -0.0448856 -2.22554e-19)
(-0.55473 -0.0445062 2.88146e-20)
(-0.501779 -0.0441262 -6.28003e-20)
(-0.448889 -0.0437488 1.72468e-19)
(-0.396065 -0.0433739 -5.32658e-20)
(-0.343312 -0.043003 2.19802e-19)
(-0.29063 -0.0426395 -2.22769e-19)
(-0.238016 -0.0422865 -3.5236e-19)
(-0.185462 -0.0419469 -5.48291e-19)
(-0.13296 -0.041623 -2.63792e-19)
(-0.0804985 -0.0413112 -1.21673e-19)
(-0.0280662 -0.0409987 5.9678e-20)
(0.0242776 -0.0406573 3.67286e-20)
(0.0764693 -0.0402432 -4.24111e-19)
(0.128477 -0.039692 -3.91209e-19)
(0.180124 -0.0388606 5.35886e-19)
(0.231441 -0.0374343 6.49878e-19)
(0.280312 -0.0350626 6.04649e-19)
(0.331933 -0.0312331 3.02039e-19)
(0.363495 -0.0198266 -6.4488e-19)
(0.000234322 0.0218975 2.85388e-19)
(0.000577186 0.0384067 2.63253e-18)
(0.00559709 0.0322547 2.74452e-18)
(0.0236083 0.00223329 -1.88192e-18)
(0.0602639 -0.0530033 3.34205e-19)
(0.109215 -0.11625 -1.50644e-19)
(0.160619 -0.168362 -6.05554e-20)
(0.20754 -0.199968 4.53885e-19)
(0.246948 -0.210876 3.5077e-19)
(0.278513 -0.205579 2.88262e-19)
(0.303231 -0.189532 1.28995e-19)
(0.32246 -0.167371 1.21781e-19)
(0.337392 -0.142345 -3.87201e-19)
(0.348894 -0.116434 -2.39913e-19)
(0.357542 -0.0907363 8.61256e-20)
(0.36373 -0.0657841 -1.86546e-19)
(0.367728 -0.0417884 1.82625e-19)
(0.369741 -0.0188243 2.75226e-20)
(0.369962 0.00313162 2.72674e-19)
(0.368741 0.024198 2.37303e-19)
(0.366315 0.0445395 -2.24295e-19)
(0.362897 0.0641828 -6.03324e-19)
(0.358502 0.0829104 -1.08731e-19)
(0.352854 0.100178 -7.03451e-19)
(0.345372 0.115087 1.58567e-19)
(0.335245 0.126417 2.50691e-19)
(0.321599 0.132765 -1.02438e-19)
(0.303809 0.132836 3.64614e-19)
(0.281942 0.125819 2.05969e-19)
(0.257021 0.111691 4.88185e-19)
(0.231135 0.0912103 -2.66696e-19)
(0.207036 0.0656592 -1.8908e-19)
(0.187553 0.0363689 1.07955e-19)
(0.174494 0.00463364 -1.48358e-19)
(0.168104 -0.0286112 -2.12367e-19)
(0.166573 -0.0592655 -1.28352e-20)
(0.162933 -0.0771829 -6.03624e-19)
(0.151219 -0.0752003 1.91374e-19)
(0.13146 -0.0568871 -4.52408e-19)
(0.10477 -0.0302199 -1.56737e-19)
(0.0710377 0.000118308 1.46532e-19)
(0.0288574 0.0307888 -1.72723e-19)
(-0.0306201 0.0594216 -3.41926e-19)
(-0.116407 0.0942215 7.14428e-19)
(-0.223719 0.140637 5.85466e-19)
(-0.348097 0.193965 -2.98883e-19)
(-0.483636 0.24889 1.08253e-19)
(-0.623759 0.301215 -1.04365e-19)
(-0.762395 0.346351 -1.58176e-19)
(-0.894845 0.382514 -6.79904e-20)
(-1.01742 0.408909 -6.60929e-20)
(-1.12799 0.424125 1.15495e-19)
(-1.22601 0.428696 1.85033e-20)
(-1.31087 0.423507 8.03988e-20)
(-1.38318 0.409616 8.86409e-21)
(-1.44477 0.388525 9.85249e-21)
(-1.49781 0.363028 4.15642e-20)
(-1.54447 0.335627 6.36506e-20)
(-1.58639 0.30751 -1.06295e-20)
(-1.62503 0.280143 2.02914e-19)
(-1.66154 0.254483 1.45742e-19)
(-1.69648 0.231016 3.35531e-20)
(-1.73034 0.209978 7.4854e-20)
(-1.76339 0.191289 -1.73939e-19)
(-1.79571 0.17503 2.57286e-20)
(-1.82726 0.160981 1.00503e-19)
(-1.858 0.148739 -1.61222e-19)
(-1.88796 0.138064 -7.30302e-20)
(-1.91713 0.128733 4.90261e-20)
(-1.9455 0.120514 3.83641e-20)
(-1.97306 0.113221 -8.14037e-20)
(-1.9998 0.106693 1.40599e-19)
(-2.02571 0.100793 1.64324e-20)
(-2.0508 0.0954122 5.07461e-20)
(-2.07507 0.0904565 -1.66621e-19)
(-2.09852 0.0858554 1.61421e-19)
(-2.12114 0.0815468 3.39374e-20)
(-2.14296 0.0774863 -7.00779e-20)
(-2.16395 0.0736341 -1.27678e-19)
(-2.18415 0.0699629 -6.34095e-20)
(-2.20353 0.0664463 1.0188e-20)
(-2.22212 0.063066 2.74305e-20)
(-2.2399 0.0598032 -1.29793e-20)
(-2.25688 0.056644 -9.69801e-20)
(-2.27307 0.0535742 -2.66348e-20)
(-2.28847 0.0505833 -2.94879e-20)
(-2.30307 0.0476597 1.76794e-20)
(-2.31687 0.0447928 -6.12195e-20)
(-2.32986 0.041972 -8.78634e-20)
(-2.34202 0.0391863 -1.08219e-19)
(-2.35337 0.0364233 3.49481e-20)
(-2.36389 0.0336733 -1.27774e-19)
(-2.37358 0.030928 1.24275e-19)
(-2.38242 0.0281803 1.07869e-20)
(-2.3904 0.0254244 -2.93329e-20)
(-2.39749 0.0226545 -5.46351e-20)
(-2.40369 0.0198683 1.88754e-20)
(-2.40897 0.0170647 9.0958e-20)
(-2.41333 0.0142469 7.49342e-20)
(-2.41675 0.0114207 3.31723e-20)
(-2.41921 0.00859342 3.98834e-20)
(-2.42068 0.0057729 1.99188e-20)
(-2.42112 0.00295434 1.84034e-20)
(-2.42046 0.000109944 -2.54764e-19)
(-2.41861 -0.00277611 5.00797e-20)
(-2.41552 -0.00568368 4.53198e-20)
(-2.41115 -0.00860549 -8.81476e-20)
(-2.40546 -0.0115349 7.48345e-20)
(-2.39842 -0.0144697 -2.48962e-20)
(-2.38999 -0.0174027 1.08048e-19)
(-2.38015 -0.0203307 7.85646e-20)
(-2.36889 -0.0232458 5.52788e-20)
(-2.35617 -0.0261428 -3.64098e-20)
(-2.34198 -0.0290132 4.38793e-20)
(-2.32632 -0.0318502 2.81751e-20)
(-2.30917 -0.034646 -3.39526e-20)
(-2.29054 -0.0373936 -5.07808e-20)
(-2.2704 -0.0400848 1.5825e-19)
(-2.24879 -0.0427134 2.35077e-20)
(-2.2257 -0.0452741 -5.37712e-20)
(-2.20117 -0.0477605 -1.34461e-19)
(-2.1752 -0.0501685 -1.69428e-20)
(-2.14781 -0.0524905 -1.13895e-21)
(-2.11903 -0.0547215 -4.61538e-20)
(-2.08887 -0.056855 4.71139e-21)
(-2.05737 -0.058889 3.55177e-20)
(-2.02456 -0.0608188 -9.57392e-20)
(-1.99047 -0.0626438 3.10931e-20)
(-1.95516 -0.0643602 1.18885e-20)
(-1.91865 -0.0659668 4.4142e-20)
(-1.88101 -0.0674623 -1.14362e-20)
(-1.84227 -0.0688495 2.22947e-20)
(-1.80247 -0.0701287 4.98008e-20)
(-1.76166 -0.0712955 4.48838e-21)
(-1.71989 -0.0723618 -1.30771e-20)
(-1.67719 -0.0733325 2.52369e-21)
(-1.6336 -0.0742153 7.94413e-22)
(-1.58918 -0.0750266 2.49486e-21)
(-1.54401 -0.0757528 6.64728e-21)
(-1.49814 -0.0763722 -1.16438e-21)
(-1.45159 -0.0768858 6.24222e-21)
(-1.40439 -0.0772956 -5.47869e-20)
(-1.35657 -0.0776057 -7.4352e-21)
(-1.30819 -0.0778253 -8.03991e-21)
(-1.2593 -0.0779588 -1.5682e-20)
(-1.20993 -0.0780154 7.26644e-20)
(-1.16013 -0.0779973 -2.12945e-20)
(-1.10993 -0.0779115 -4.5761e-20)
(-1.05937 -0.0777601 -1.19081e-19)