/*--------------------------------*- C++ -*----------------------------------*\
  =========                 |
  \\      /  F ield         | OpenFOAM: The Open Source CFD Toolbox
   \\    /   O peration     | Website:  https://openfoam.org
    \\  /    A nd           | Version:  13
     \\/     M anipulation  |
\*---------------------------------------------------------------------------*/
FoamFile
{
    format      ascii;
    class       volScalarField;
    location    "1200";
    object      k;
}
// * * * * * * * * * * * * * * * * * * * * * * * * * * * * * * * * * * * * * //

dimensions      [0 2 -2 0 0 0 0];

internalField   nonuniform List<scalar> 
12225
(
0.442853
1.73781
2.07628
3.72172
3.10363
3.90803
2.99225
2.01843
1.76675
1.7806
1.9312
1.25765
1.15379
1.26677
1.37456
1.97333
2.85361
2.25511
0.0444004
0.0474061
0.0656537
0.0956063
0.160052
0.254926
0.319206
0.398658
0.454266
0.52267
0.590328
0.617897
0.703794
0.739941
0.768343
0.824614
0.861316
0.889162
0.0599027
0.045648
0.0504915
0.0666218
0.0944535
0.127041
0.240502
0.210291
0.293207
0.26843
0.310292
0.333445
0.341355
0.337012
0.336523
0.339094
0.33982
0.342694
0.10928
0.0681252
0.0934345
0.137473
0.211627
0.267313
0.304619
0.322588
0.333743
0.335742
0.335033
0.329456
0.31941
0.303633
0.284587
0.262937
0.241134
0.218082
0.20341
0.130646
0.177119
0.232087
0.281797
0.31488
0.33415
0.343575
0.347736
0.348199
0.345891
0.339002
0.328811
0.31215
0.294258
0.26958
0.248213
0.220292
0.300757
0.25371
0.267648
0.296937
0.322243
0.338645
0.347843
0.35209
0.353591
0.353164
0.350984
0.344998
0.33731
0.322901
0.310634
0.287209
0.277075
0.243183
0.353444
0.324547
0.323949
0.333783
0.344234
0.351209
0.354942
0.356242
0.356402
0.355364
0.353583
0.348884
0.343547
0.333188
0.32469
0.309326
0.300079
0.284398
0.367532
0.357379
0.354634
0.353699
0.355813
0.357699
0.358573
0.358333
0.357747
0.356438
0.354915
0.351491
0.347814
0.341144
0.33535
0.326026
0.319468
0.309865
0.372014
0.367805
0.365112
0.363156
0.362136
0.361367
0.360601
0.359435
0.35834
0.356928
0.355522
0.353074
0.350486
0.346314
0.342452
0.336886
0.332565
0.326626
0.373353
0.370662
0.368324
0.36625
0.364501
0.36292
0.361478
0.359982
0.358627
0.357163
0.355772
0.353905
0.351981
0.349283
0.346707
0.343296
0.340498
0.336773
0.373717
0.371366
0.369176
0.367123
0.365232
0.363448
0.361794
0.360177
0.358698
0.357215
0.355825
0.354263
0.352703
0.350802
0.348968
0.34673
0.344825
0.342434
0.3738
0.371514
0.369359
0.367317
0.3654
0.363576
0.361865
0.360219
0.358686
0.357198
0.355796
0.354362
0.352963
0.351431
0.349954
0.348288
0.346812
0.345092
0.373822
0.371549
0.3694
0.36736
0.365434
0.363601
0.36187
0.360216
0.358657
0.357163
0.355752
0.354368
0.353044
0.351693
0.350402
0.349049
0.347806
0.346471
0.373826
0.371554
0.369403
0.367362
0.365431
0.363594
0.361854
0.360197
0.358626
0.357127
0.355706
0.354341
0.353041
0.351773
0.350563
0.349365
0.348237
0.347106
0.373826
0.371553
0.369399
0.367356
0.36542
0.363581
0.361836
0.360175
0.358598
0.357096
0.355668
0.354305
0.353007
0.351764
0.350577
0.349436
0.348348
0.347298
0.373826
0.371551
0.369395
0.36735
0.365411
0.363569
0.36182
0.360157
0.358575
0.35707
0.355637
0.354272
0.352971
0.35173
0.350547
0.349416
0.348338
0.347307
0.373825
0.37155
0.369392
0.367346
0.365404
0.36356
0.361808
0.360142
0.358558
0.35705
0.355614
0.354246
0.352942
0.3517
0.350514
0.349384
0.348304
0.347275
0.373825
0.371549
0.369391
0.367343
0.365399
0.363554
0.3618
0.360133
0.358547
0.357037
0.355599
0.354229
0.352924
0.351679
0.350492
0.34936
0.348279
0.347248
0.373825
0.371549
0.36939
0.367342
0.365399
0.363553
0.361799
0.360131
0.358544
0.357033
0.355595
0.354224
0.352918
0.351672
0.350484
0.34935
0.348269
0.347237
0.373826
0.371549
0.369393
0.367345
0.365404
0.363558
0.361806
0.360136
0.358549
0.357036
0.355597
0.354224
0.352917
0.35167
0.350482
0.349348
0.348266
0.347234
0.373827
0.371552
0.369393
0.367351
0.36541
0.363561
0.36179
0.360104
0.358491
0.356959
0.355498
0.354112
0.352789
0.351535
0.350336
0.349202
0.348112
0.347086
0.373834
0.371531
0.369365
0.36731
0.365345
0.363408
0.361506
0.35967
0.357903
0.356242
0.354661
0.353187
0.351786
0.350488
0.349246
0.348109
0.346994
0.345994
0.373839
0.37129
0.368942
0.3666
0.364444
0.362078
0.359622
0.357178
0.354832
0.352709
0.350675
0.348902
0.347206
0.345753
0.344368
0.343241
0.342041
0.341149
0.373533
0.369518
0.365454
0.36143
0.359104
0.355915
0.35241
0.348216
0.344407
0.340848
0.337365
0.334701
0.331925
0.330016
0.328202
0.326895
0.325606
0.325106
0.369503
0.358421
0.347501
0.340168
0.335225
0.335932
0.331991
0.32352
0.31638
0.306765
0.297943
0.29145
0.282123
0.276538
0.270776
0.263613
0.261274
0.258559
0.337576
0.297746
0.218184
0.25814
0.217809
0.252844
0.260955
0.251915
0.233682
0.214473
0.196204
0.178993
0.164011
0.154714
0.14748
0.139136
0.135124
0.130396
0.327536
0.204733
0.135794
0.155474
0.10675
0.127708
0.128311
0.115342
0.0988563
0.0816633
0.0673908
0.0576623
0.0505938
0.0469643
0.0439352
0.0417957
0.0416596
0.0400715
0.220384
0.0953709
0.0656335
0.0568375
0.0461967
0.0414244
0.0491736
0.0374694
0.0396199
0.0429961
0.0454191
0.0486302
0.0502632
0.0523099
0.0472653
0.0535094
0.0505113
0.0499132
0.0794372
0.0304276
0.0427082
0.064064
0.100113
0.154359
0.190574
0.246485
0.311205
0.348887
0.363401
0.393794
0.398566
0.409861
0.401699
0.39725
0.403739
0.419473
0.826234
1.19405
1.42759
1.54947
1.60453
1.59164
1.56835
1.52354
1.47431
1.42727
1.3822
1.34081
1.30197
1.26729
1.23534
1.20766
1.18298
1.16211
1.50964e-08
3.74799e-07
1.92152e-06
7.58916e-06
2.53338e-05
7.60593e-05
0.000205609
0.000422562
0.000705199
0.00101647
0.0013074
0.00154212
0.00170937
0.00179571
0.0017888
0.00173337
0.00162535
0.00144562
0.00122339
0.00104243
0.000876389
0.000717766
0.000562763
0.000418672
0.000285399
0.000175621
9.73071e-05
4.96562e-05
2.469e-05
1.26749e-05
7.00306e-06
4.35579e-06
3.49954e-06
4.30523e-06
9.61759e-06
2.19726e-05
0.000166182
0.000290493
0.000665728
0.00101972
0.00115826
0.00107898
0.000891852
0.000742752
0.00072872
0.000822066
0.000997248
0.00150787
0.00240413
0.00562492
0.0149142
0.0397165
0.072882
0.097953
0.101231
0.0782311
0.116781
0.12146
0.154464
0.170132
0.160476
0.154012
0.165007
0.178156
0.162157
0.176647
0.18415
0.192634
0.200875
0.208947
0.216815
0.22467
0.232298
0.239946
0.247404
0.254872
0.262187
0.269495
0.27668
0.283844
0.290899
0.297924
0.304845
0.311729
0.318507
0.32524
0.331863
0.338432
0.344892
0.351284
0.357573
0.363757
0.369817
0.375749
0.381544
0.387187
0.392671
0.397983
0.40312
0.408079
0.412876
0.417544
0.422151
0.426571
0.430847
0.434963
0.438917
0.442713
0.446335
0.449792
0.453065
0.456165
0.459074
0.461799
0.46433
0.466669
0.468812
0.470756
0.472499
0.474032
0.475364
0.476491
0.477431
0.47817
0.478733
0.479095
0.479295
0.479302
0.479164
0.478736
0.478459
0.4772
0.47679
0.475171
0.474564
0.472392
0.471019
0.469205
0.4673
0.465185
0.462927
0.460507
0.457967
0.455309
0.452554
0.449702
0.446774
0.443766
0.440699
0.437571
0.434402
0.431186
0.427941
0.424658
0.421358
0.418038
0.414719
0.4114
0.408102
0.40483
0.401603
0.398419
0.395289
0.39221
0.389186
0.386216
0.383297
0.380439
0.377634
0.374896
0.372209
0.369582
0.366983
0.364412
0.361792
0.359053
0.356066
0.352489
0.347763
0.333259
7.47266e-08
2.12488e-06
1.41538e-05
5.96638e-05
0.000217983
0.000632007
0.00151887
0.00283616
0.00443049
0.00611451
0.00770389
0.00903403
0.0100656
0.0107165
0.0111029
0.0111015
0.0109843
0.0106946
0.0101854
0.00946273
0.00850677
0.00738404
0.00609097
0.00479019
0.00342735
0.00231995
0.00149869
0.000932539
0.000564853
0.000336216
0.00020269
0.000128645
9.66748e-05
8.12067e-05
0.000144105
0.000129812
0.00178012
0.00298104
0.00634339
0.0094753
0.011407
0.0116897
0.0113632
0.011362
0.012533
0.0160297
0.0211685
0.0296838
0.045108
0.0703855
0.0947055
0.119643
0.140117
0.157369
0.171452
0.179984
0.198471
0.210654
0.229476
0.24767
0.265757
0.283291
0.301581
0.321881
0.339304
0.358638
0.37721
0.395518
0.413668
0.431588
0.449358
0.466994
0.484506
0.501936
0.519272
0.536554
0.553761
0.570926
0.58803
0.605097
0.622103
0.639068
0.655969
0.672821
0.689595
0.706309
0.722933
0.739482
0.755936
0.772311
0.788583
0.804726
0.820719
0.836548
0.852196
0.867638
0.882855
0.897816
0.912496
0.926853
0.940856
0.954456
0.967624
0.980563
0.993206
1.00557
1.01764
1.0294
1.04084
1.05195
1.0627
1.07309
1.08311
1.09273
1.10195
1.11075
1.11913
1.12707
1.13455
1.14157
1.14812
1.1542
1.15981
1.16494
1.16959
1.17376
1.17744
1.18064
1.18334
1.18555
1.18734
1.18819
1.18894
1.18913
1.18914
1.1888
1.18804
1.1871
1.18576
1.18396
1.18171
1.17904
1.17599
1.17258
1.16883
1.16477
1.16042
1.15579
1.15091
1.14579
1.14045
1.13491
1.12918
1.12327
1.1172
1.11098
1.10465
1.09822
1.09172
1.08516
1.07859
1.072
1.06541
1.05883
1.05226
1.0457
1.03915
1.03262
1.02611
1.01962
1.01317
1.00673
1.00029
0.993813
0.987215
0.980369
0.973072
0.964903
0.954012
0.929422
1.72853e-07
5.13697e-06
3.90533e-05
0.000178455
0.000704368
0.00169013
0.0036112
0.00591339
0.00827653
0.0104634
0.0123256
0.0138006
0.0148673
0.0155493
0.0159216
0.0159437
0.0158464
0.0155819
0.0151299
0.0145456
0.0138232
0.0129614
0.0119415
0.0107355
0.00940752
0.00784185
0.00615446
0.00454419
0.0031336
0.00204974
0.00135588
0.000924408
0.000714334
0.000497964
0.000861745
0.00133283
0.00599179
0.0123272
0.0206614
0.027052
0.0311176
0.0331976
0.0356345
0.0420276
0.0561394
0.0739868
0.0923366
0.11243
0.133806
0.153359
0.173529
0.193335
0.213353
0.234461
0.256592
0.282561
0.310894
0.33839
0.36632
0.394544
0.422414
0.449883
0.476931
0.503892
0.5297
0.555316
0.580315
0.604888
0.629111
0.653031
0.676698
0.700161
0.723449
0.746599
0.769624
0.792547
0.815371
0.838108
0.860759
0.883327
0.905807
0.928199
0.950495
0.972694
0.99478
1.01675
1.03859
1.0603
1.08186
1.10327
1.12454
1.14562
1.16649
1.18716
1.20759
1.22779
1.24772
1.2674
1.28678
1.30588
1.32468
1.34317
1.36134
1.37917
1.39663
1.4137
1.43037
1.44661
1.46242
1.47776
1.49263
1.507
1.52086
1.53419
1.54697
1.55919
1.57083
1.58187
1.59231
1.60212
1.6113
1.61985
1.62776
1.63503
1.64165
1.64762
1.65292
1.65756
1.66153
1.66482
1.66741
1.66921
1.67046
1.67095
1.67127
1.67129
1.67035
1.66885
1.66675
1.66406
1.66079
1.65695
1.6526
1.64775
1.64244
1.6367
1.63055
1.62402
1.61714
1.60992
1.60239
1.59458
1.5865
1.57817
1.56961
1.56084
1.5519
1.5428
1.53358
1.52426
1.51486
1.50542
1.49594
1.48643
1.4769
1.46735
1.45779
1.44822
1.43865
1.42909
1.41955
1.41003
1.40051
1.39099
1.3814
1.37164
1.36152
1.35071
1.3373
1.31421
6.61689e-07
1.98255e-05
0.000154994
0.000625721
0.00196783
0.004632
0.00807617
0.0115059
0.0145509
0.0170243
0.0188683
0.0201155
0.0208262
0.0211035
0.0210533
0.0208332
0.0203788
0.0197969
0.0191244
0.0183842
0.0175781
0.0167045
0.0157505
0.0146906
0.0135094
0.0121699
0.0106596
0.00903113
0.00738338
0.00582918
0.00435782
0.00336137
0.00245254
0.00251809
0.00383415
0.00927428
0.0226582
0.0368623
0.0483254
0.0571349
0.0652587
0.0752812
0.0886164
0.104556
0.120483
0.136435
0.153205
0.172268
0.193199
0.214897
0.239192
0.264985
0.292998
0.322779
0.353922
0.386337
0.419384
0.452275
0.485193
0.517937
0.550182
0.581933
0.61309
0.643804
0.673809
0.703412
0.732542
0.761311
0.78977
0.81797
0.845956
0.873769
0.901438
0.92899
0.95644
0.983801
1.01108
1.03827
1.06538
1.09241
1.11935
1.14618
1.17291
1.19953
1.22602
1.25237
1.27856
1.30459
1.33045
1.35613
1.38163
1.40692
1.43197
1.45679
1.48135
1.50564
1.52966
1.55338
1.5768
1.59989
1.62264
1.64502
1.66701
1.68858
1.70971
1.73036
1.75052
1.77017
1.78927
1.80782
1.82578
1.84314
1.85988
1.87597
1.8914
1.90614
1.92018
1.93351
1.9461
1.95794
1.96902
1.97933
1.98887
1.99764
2.00562
2.01281
2.0192
2.02479
2.02956
2.03351
2.03664
2.03892
2.04042
2.0411
2.04139
2.04115
2.0399
2.03791
2.03521
2.03181
2.02772
2.02297
2.01759
2.01162
2.00508
1.99802
1.99046
1.98243
1.97395
1.96506
1.95579
1.94615
1.93618
1.9259
1.91532
1.90448
1.89339
1.8821
1.87063
1.85901
1.84728
1.83545
1.82354
1.81158
1.79956
1.78749
1.77538
1.76324
1.75107
1.73891
1.72676
1.71463
1.70253
1.69045
1.67836
1.6662
1.65384
1.64105
1.62617
1.60452
2.21396e-06
6.64427e-05
0.000496534
0.00194642
0.00539879
0.0104921
0.0153895
0.0194435
0.0224363
0.0244119
0.0255317
0.026002
0.0259656
0.0256962
0.0251276
0.0244069
0.0236003
0.0227498
0.0218807
0.0210069
0.0201276
0.0192351
0.018315
0.0173457
0.0163023
0.0151516
0.0138659
0.0124448
0.0109539
0.00949653
0.00810157
0.00648043
0.00664786
0.00966745
0.0202867
0.0397061
0.0588804
0.0752432
0.0884023
0.099765
0.110993
0.122902
0.135515
0.148883
0.163382
0.180807
0.201099
0.223917
0.249427
0.276936
0.306736
0.338106
0.371007
0.404942
0.439588
0.474726
0.510108
0.545452
0.580736
0.615834
0.650606
0.685025
0.719022
0.75265
0.785856
0.818738
0.851305
0.883613
0.915704
0.947617
0.979389
1.01105
1.04262
1.07413
1.10557
1.13696
1.1683
1.19958
1.23079
1.26193
1.29298
1.32394
1.35479
1.38552
1.41611
1.44656
1.47683
1.50692
1.53682
1.56651
1.59599
1.62524
1.65423
1.68295
1.71139
1.73952
1.76734
1.79483
1.82196
1.84871
1.87505
1.90096
1.92641
1.95136
1.9758
1.99969
2.023
2.04572
2.06781
2.08925
2.11001
2.13008
2.14941
2.168
2.18582
2.20285
2.21907
2.23445
2.24899
2.26266
2.27546
2.28736
2.29838
2.3085
2.31771
2.326
2.33337
2.33981
2.34532
2.34988
2.3535
2.35617
2.35791
2.35872
2.35898
2.35851
2.35699
2.3546
2.35139
2.34736
2.34255
2.33698
2.33069
2.32371
2.31608
2.30782
2.29898
2.28958
2.27966
2.26924
2.25836
2.24705
2.23533
2.22324
2.2108
2.19802
2.18495
2.17161
2.15805
2.14428
2.13036
2.11629
2.10211
2.08783
2.07347
2.05903
2.04453
2.02996
2.01537
2.00075
1.98614
1.97156
1.95702
1.94254
1.92811
1.91372
1.89928
1.88463
1.86838
1.84707
6.99031e-06
0.000206071
0.00148584
0.0052805
0.0125923
0.0193609
0.0244083
0.027682
0.0295209
0.0303412
0.03044
0.0301623
0.0295125
0.0286285
0.0276264
0.0265735
0.0255159
0.024486
0.0234995
0.0225621
0.0216667
0.0208002
0.0199425
0.0190641
0.018139
0.0171285
0.0159854
0.0146649
0.0131322
0.0115256
0.0111644
0.0127763
0.0197397
0.0358549
0.0590256
0.0820132
0.10118
0.115757
0.126651
0.135813
0.145016
0.155245
0.167655
0.183272
0.201991
0.22406
0.249235
0.276919
0.306734
0.338134
0.370957
0.404828
0.439585
0.474978
0.510852
0.547092
0.583589
0.620232
0.656958
0.693683
0.73032
0.766824
0.803146
0.839292
0.875243
0.911025
0.946656
0.982162
1.01757
1.05291
1.08821
1.12349
1.15875
1.19402
1.22929
1.26456
1.29982
1.33506
1.37026
1.40542
1.4405
1.4755
1.5104
1.54518
1.57981
1.61428
1.64858
1.68268
1.71656
1.75022
1.78364
1.8168
1.84967
1.88224
1.91449
1.9464
1.97795
2.00911
2.03986
2.07018
2.10003
2.12938
2.1582
2.18646
2.21413
2.24118
2.26758
2.2933
2.31831
2.34258
2.36608
2.38878
2.41067
2.4317
2.45186
2.47113
2.48947
2.50687
2.52331
2.53878
2.55325
2.56672
2.57917
2.59061
2.60102
2.61039
2.61872
2.626
2.63222
2.63739
2.64149
2.64454
2.64652
2.64745
2.64768
2.64702
2.64525
2.64249
2.63879
2.63418
2.62868
2.62233
2.61515
2.60719
2.59849
2.58907
2.57898
2.56825
2.55691
2.545
2.53254
2.51958
2.50615
2.49228
2.47799
2.46331
2.44828
2.43293
2.41729
2.40141
2.38532
2.36905
2.35262
2.33606
2.31939
2.30261
2.28574
2.26879
2.25179
2.23475
2.21772
2.20072
2.18378
2.16693
2.1502
2.13359
2.11706
2.10049
2.08272
2.06088
2.21326e-05
0.000615994
0.00407205
0.0129383
0.0222336
0.0285041
0.0321158
0.0339352
0.0345993
0.0345163
0.033988
0.0330183
0.0318289
0.0305242
0.0291838
0.027871
0.0266252
0.0254715
0.0244166
0.0234569
0.0225766
0.0217545
0.0209583
0.0201395
0.0192516
0.0183118
0.0174163
0.0166953
0.0165372
0.0178822
0.0230573
0.0349057
0.0554524
0.0794723
0.10239
0.121384
0.135048
0.144381
0.151742
0.15927
0.168965
0.182094
0.19871
0.218929
0.242503
0.269019
0.297851
0.328382
0.360236
0.393115
0.426883
0.461389
0.496553
0.532294
0.568559
0.605297
0.642456
0.679969
0.717768
0.755788
0.793962
0.832241
0.87058
0.908958
0.947355
0.985774
1.02422
1.0627
1.10123
1.13982
1.1785
1.21727
1.25613
1.29508
1.33412
1.37323
1.41239
1.45159
1.49079
1.52998
1.56913
1.6082
1.64718
1.68604
1.72476
1.76332
1.80168
1.83983
1.87775
1.91542
1.95282
1.98993
2.02672
2.06318
2.09927
2.13498
2.17028
2.20515
2.23955
2.27346
2.30684
2.33966
2.37188
2.40347
2.43441
2.46464
2.49416
2.5229
2.55085
2.57797
2.60423
2.6296
2.65404
2.67754
2.70005
2.72156
2.74204
2.76146
2.77981
2.79707
2.81321
2.82824
2.84213
2.85489
2.86649
2.87694
2.88622
2.89433
2.90126
2.90702
2.91159
2.91501
2.91723
2.91827
2.91847
2.91762
2.91558
2.91245
2.90827
2.90306
2.89687
2.88972
2.88166
2.87271
2.86292
2.85233
2.84097
2.82888
2.81611
2.80268
2.78863
2.77401
2.75884
2.74316
2.727
2.71039
2.69337
2.67598
2.65825
2.64023
2.62196
2.60346
2.58477
2.56592
2.54692
2.52778
2.50852
2.48916
2.46973
2.45026
2.43079
2.41135
2.392
2.37276
2.35369
2.33481
2.31611
2.29751
2.27797
2.255
6.68147e-05
0.00171453
0.0097728
0.0228055
0.0312238
0.0358188
0.0380786
0.0388889
0.0387617
0.0380382
0.0367906
0.0352722
0.0336138
0.0319253
0.0302869
0.0287587
0.0273729
0.0261443
0.0250669
0.0241267
0.0232997
0.0225579
0.0218536
0.0211487
0.020484
0.0200285
0.0200837
0.0216154
0.0261233
0.0360298
0.0531569
0.0746853
0.0966926
0.117341
0.134376
0.146541
0.154783
0.161269
0.168888
0.179294
0.193243
0.210954
0.232185
0.256569
0.283551
0.312506
0.342873
0.374272
0.406515
0.439503
0.473195
0.507559
0.542591
0.578285
0.614634
0.65162
0.689207
0.727349
0.765994
0.805086
0.844569
0.884392
0.924513
0.9649
1.00553
1.04638
1.08746
1.12876
1.17028
1.21203
1.254
1.29621
1.33863
1.38126
1.42408
1.46706
1.51018
1.5534
1.59668
1.63998
1.68327
1.72651
1.76966
1.81271
1.85561
1.89834
1.94087
1.98317
2.02521
2.06698
2.10845
2.14959
2.19038
2.2308
2.27081
2.31039
2.34952
2.38815
2.42627
2.46383
2.50081
2.53716
2.57285
2.60784
2.64209
2.67557
2.70824
2.74006
2.77099
2.801
2.83005
2.8581
2.88513
2.9111
2.93597
2.95974
2.98235
3.0038
3.02405
3.04309
3.0609
3.07747
3.09278
3.10683
3.11961
3.1311
3.14131
3.15022
3.15784
3.16415
3.16917
3.17291
3.17535
3.17648
3.17661
3.17554
3.17321
3.16967
3.16498
3.15915
3.15223
3.14425
3.13525
3.12528
3.11436
3.10255
3.08989
3.07641
3.06216
3.04718
3.0315
3.01516
2.99821
2.98068
2.96261
2.94403
2.92498
2.90551
2.88565
2.86546
2.84497
2.82422
2.80323
2.78205
2.76068
2.73915
2.71747
2.69567
2.67378
2.65185
2.6299
2.608
2.5862
2.56453
2.54307
2.52186
2.50089
2.48013
2.45862
2.43407
0.00017729
0.00415762
0.018813
0.0317818
0.0386681
0.04202
0.0433461
0.043381
0.0426153
0.0411778
0.0393597
0.0373371
0.0352524
0.0332252
0.0313402
0.0296576
0.0282055
0.0269938
0.0260097
0.02524
0.0246585
0.0242821
0.0241755
0.0244554
0.0255385
0.0278108
0.0320572
0.0399214
0.0531002
0.0701483
0.0891792
0.108484
0.126024
0.140496
0.151373
0.159505
0.16681
0.175431
0.186856
0.201791
0.220273
0.24201
0.266523
0.293265
0.321677
0.351273
0.381738
0.412909
0.444748
0.477251
0.510448
0.54437
0.579053
0.614526
0.650801
0.687873
0.725728
0.764336
0.803658
0.84365
0.884264
0.925456
0.967184
1.00941
1.05212
1.09527
1.13887
1.18289
1.22733
1.27218
1.31743
1.36307
1.40908
1.45544
1.5021
1.54904
1.5962
1.64354
1.691
1.73854
1.78609
1.83361
1.88107
1.92842
1.97562
2.02264
2.06945
2.116
2.16227
2.20823
2.25387
2.29914
2.34402
2.38847
2.43249
2.47601
2.51903
2.56151
2.6034
2.64469
2.68532
2.72526
2.76446
2.80288
2.84049
2.87724
2.91309
2.948
2.98193
3.01483
3.04668
3.07742
3.10702
3.13545
3.16267
3.18866
3.21339
3.23682
3.25894
3.27972
3.29915
3.3172
3.33388
3.34916
3.36305
3.37553
3.3866
3.39626
3.40449
3.4113
3.4167
3.4207
3.42328
3.42445
3.42447
3.42312
3.42042
3.41642
3.41115
3.40464
3.39693
3.38806
3.37807
3.36701
3.35491
3.34183
3.32781
3.31289
3.29712
3.28053
3.26317
3.24508
3.2263
3.20689
3.18686
3.16626
3.14514
3.12355
3.10154
3.07914
3.0564
3.03336
3.01005
2.9865
2.96273
2.93877
2.91464
2.89037
2.866
2.84158
2.81714
2.79275
2.76846
2.74433
2.72042
2.6968
2.67349
2.65046
2.6268
2.60032
0.000403048
0.00860158
0.0281587
0.0398519
0.045446
0.0478954
0.0484901
0.0478917
0.0464431
0.0444305
0.0420846
0.0396045
0.0371543
0.0348691
0.0328409
0.031132
0.0297719
0.0287655
0.0280821
0.027757
0.0277214
0.0281337
0.0292383
0.0316177
0.0360789
0.0434853
0.0542275
0.0678863
0.0832362
0.099561
0.115606
0.130193
0.142548
0.152686
0.161297
0.16979
0.179728
0.192322
0.208087
0.227014
0.248772
0.272898
0.29891
0.326337
0.354797
0.384013
0.41386
0.444306
0.475386
0.507155
0.53968
0.573025
0.60725
0.642392
0.67848
0.715529
0.753537
0.792492
0.832369
0.873136
0.914758
0.957198
1.00042
1.04439
1.08908
1.13447
1.18053
1.22724
1.27459
1.32256
1.37113
1.42027
1.46994
1.52011
1.57072
1.62172
1.67305
1.72464
1.77642
1.82831
1.88026
1.9322
1.98408
2.03585
2.08747
2.13889
2.19008
2.24099
2.29158
2.34183
2.3917
2.44117
2.49021
2.53878
2.58684
2.63437
2.68133
2.72769
2.7734
2.81843
2.86273
2.90626
2.94899
2.99085
3.0318
3.07181
3.11082
3.14879
3.18568
3.22145
3.25603
3.28941
3.32152
3.35234
3.38184
3.40998
3.43673
3.46206
3.48595
3.50838
3.52932
3.54876
3.56669
3.58311
3.598
3.61136
3.62318
3.63347
3.64221
3.64941
3.65508
3.65923
3.66186
3.66298
3.66276
3.66107
3.65793
3.65338
3.64745
3.64017
3.63159
3.62176
3.6107
3.59848
3.58513
3.57071
3.55527
3.53884
3.52149
3.50325
3.48416
3.46427
3.44362
3.42226
3.40023
3.37758
3.35435
3.33061
3.3064
3.28177
3.25676
3.2314
3.20574
3.17981
3.15362
3.12721
3.10061
3.07385
3.04698
3.02005
2.9931
2.9662
2.93941
2.91278
2.88639
2.86031
2.83458
2.80919
2.78329
2.75489
0.000787035
0.0152479
0.0365985
0.047122
0.0519132
0.0537537
0.053805
0.0526485
0.0506655
0.0481594
0.0453865
0.042576
0.0399173
0.037563
0.0356158
0.0341445
0.0331999
0.032829
0.0329176
0.033676
0.0353237
0.0382122
0.042668
0.0489655
0.0572992
0.0675965
0.0796312
0.0928682
0.106466
0.119678
0.131888
0.142812
0.152561
0.161769
0.171462
0.182726
0.196352
0.212697
0.231714
0.253101
0.276467
0.301406
0.327561
0.354623
0.382384
0.410724
0.439624
0.46912
0.499289
0.530215
0.561991
0.594693
0.62839
0.663135
0.698974
0.735933
0.774028
0.813263
0.853629
0.895109
0.937682
0.981323
1.026
1.0717
1.11837
1.166
1.21456
1.26403
1.31436
1.36555
1.41753
1.47029
1.52375
1.57787
1.63257
1.68777
1.74339
1.79937
1.85559
1.91198
1.96845
2.02492
2.08133
2.13762
2.19375
2.24966
2.30531
2.36065
2.41563
2.47021
2.52436
2.57807
2.63129
2.68398
2.73611
2.78764
2.83853
2.88874
2.93824
2.98697
3.0349
3.08198
3.12816
3.17338
3.2176
3.26077
3.30285
3.34378
3.38352
3.42201
3.45922
3.49509
3.52958
3.56265
3.59427
3.6244
3.65302
3.68008
3.70558
3.72947
3.75176
3.77241
3.79142
3.80879
3.82451
3.83858
3.85099
3.86174
3.87083
3.87827
3.88406
3.88822
3.89074
3.89168
3.89111
3.88897
3.88526
3.88004
3.87334
3.8652
3.85566
3.84476
3.83255
3.81909
3.80441
3.78858
3.77164
3.75366
3.73466
3.71471
3.69385
3.67212
3.64957
3.62624
3.60217
3.57743
3.55207
3.52615
3.49973
3.47286
3.44557
3.41791
3.3899
3.36157
3.33297
3.30411
3.27503
3.24579
3.21643
3.187
3.15755
3.12814
3.09883
3.0697
3.04081
3.01224
2.98403
2.95623
2.92802
2.89762
0.00129807
0.0225248
0.0443777
0.0543161
0.058601
0.0599539
0.0595743
0.0579773
0.0555835
0.0527389
0.0497413
0.0468521
0.0442881
0.0422278
0.0408072
0.0401722
0.0401285
0.0408909
0.0425112
0.0451679
0.0490289
0.0542411
0.0609029
0.0689822
0.0783166
0.0886776
0.0996961
0.110939
0.121977
0.132553
0.142589
0.152285
0.162158
0.172923
0.185256
0.199635
0.216257
0.235045
0.255765
0.278097
0.301742
0.326417
0.35191
0.37805
0.404754
0.431991
0.459806
0.488267
0.517475
0.547533
0.578539
0.610579
0.643738
0.678083
0.713669
0.75054
0.788729
0.828255
0.869128
0.91135
0.954918
0.999819
1.04604
1.09354
1.14231
1.19232
1.24353
1.2959
1.34939
1.40396
1.45955
1.51612
1.57357
1.63183
1.69079
1.75035
1.81043
1.87093
1.93172
1.99271
2.05379
2.11487
2.17589
2.23677
2.29745
2.35789
2.41802
2.47778
2.53713
2.59601
2.65442
2.71231
2.76965
2.8264
2.88252
2.93796
2.99268
3.04663
3.09978
3.15208
3.20349
3.25395
3.30341
3.35181
3.39911
3.44525
3.49018
3.53385
3.57622
3.61722
3.65681
3.69494
3.73156
3.76663
3.80011
3.83198
3.86219
3.89073
3.91756
3.94267
3.96603
3.98764
4.00747
4.02554
4.04184
4.05637
4.06913
4.08012
4.08934
4.09679
4.1025
4.10646
4.1087
4.10925
4.1082
4.10545
4.10104
4.09501
4.08742
4.07829
4.06767
4.05561
4.04215
4.02736
4.01127
3.99396
3.97547
3.95585
3.93517
3.91347
3.89081
3.86721
3.84273
3.8174
3.79128
3.76443
3.73694
3.70885
3.68023
3.65113
3.62159
3.59164
3.56131
3.53062
3.49962
3.46834
3.43682
3.40513
3.37331
3.34142
3.30951
3.27763
3.24584
3.21422
3.18284
3.15178
3.1211
3.09086
3.06032
3.02786
0.00193773
0.0291293
0.051588
0.0614519
0.0655102
0.0665894
0.0658898
0.0639655
0.0613136
0.058349
0.0554208
0.0528061
0.0507297
0.0494516
0.0489961
0.0492688
0.0504601
0.052585
0.0556772
0.0597928
0.0649737
0.0712277
0.0784821
0.0866002
0.0953849
0.104635
0.114127
0.123711
0.13329
0.142911
0.152786
0.163299
0.174897
0.187963
0.202754
0.219343
0.237651
0.257486
0.278627
0.300838
0.323933
0.347746
0.372176
0.397151
0.422665
0.448743
0.475462
0.502912
0.531204
0.560443
0.59074
0.622192
0.654892
0.688921
0.724355
0.761251
0.799657
0.839609
0.881138
0.924267
0.969007
1.01536
1.06332
1.11288
1.164
1.21667
1.27082
1.32642
1.3834
1.4417
1.50124
1.56192
1.62366
1.68632
1.74976
1.81387
1.87852
1.94361
2.00903
2.07464
2.14033
2.20602
2.27161
2.33704
2.40224
2.46714
2.53166
2.59573
2.65931
2.72236
2.78486
2.84677
2.90805
2.96867
3.02857
3.08769
3.146
3.20344
3.25998
3.31557
3.37015
3.42369
3.47612
3.52738
3.57741
3.62617
3.6736
3.71966
3.76428
3.80742
3.84902
3.88902
3.92738
3.96407
3.99903
4.03224
4.06367
4.09329
4.12109
4.14702
4.1711
4.19328
4.21359
4.232
4.24854
4.2632
4.27598
4.2869
4.29596
4.30315
4.30851
4.31203
4.31375
4.3137
4.31199
4.30844
4.30315
4.29616
4.28753
4.27728
4.26547
4.25214
4.23734
4.22112
4.20355
4.18469
4.16458
4.14329
4.12088
4.0974
4.07291
4.04744
4.02104
3.9937
3.96554
3.93662
3.90702
3.8768
3.84603
3.81475
3.783
3.75082
3.71823
3.68525
3.65191
3.61826
3.58438
3.55031
3.51612
3.48184
3.44754
3.41326
3.37906
3.345
3.31117
3.27767
3.24455
3.21192
3.17905
3.14458
0.00275795
0.0350278
0.058904
0.0688721
0.0727561
0.0736125
0.0726199
0.0704318
0.0676488
0.0647671
0.0622021
0.0601902
0.0589831
0.058581
0.0589471
0.0602658
0.0624769
0.0655542
0.0694882
0.0742732
0.0798618
0.0862
0.0931891
0.10074
0.108748
0.117146
0.125875
0.134956
0.144476
0.154622
0.165629
0.177752
0.191187
0.206045
0.222335
0.239967
0.258812
0.278696
0.29947
0.320986
0.343151
0.365884
0.389164
0.412979
0.437376
0.462408
0.488178
0.514785
0.542346
0.570969
0.600766
0.631841
0.664303
0.698249
0.733766
0.770934
0.809823
0.850496
0.893006
0.937399
0.983706
1.03195
1.08213
1.13423
1.18825
1.24412
1.30179
1.3612
1.42224
1.4848
1.54877
1.61401
1.68038
1.74771
1.81583
1.88456
1.9538
2.02341
2.09331
2.16338
2.23352
2.30361
2.37359
2.44338
2.5129
2.58205
2.65071
2.71881
2.78632
2.85322
2.91948
2.98507
3.04993
3.11403
3.1773
3.23969
3.30115
3.36163
3.42109
3.47948
3.53675
3.59285
3.64772
3.70131
3.75355
3.80438
3.85376
3.90164
3.94797
3.99268
4.03573
4.07706
4.11661
4.15435
4.19024
4.22426
4.25637
4.28655
4.31478
4.34104
4.36532
4.3876
4.40789
4.4262
4.44253
4.45689
4.4693
4.47976
4.48829
4.49488
4.49956
4.50235
4.50326
4.50242
4.49977
4.4952
4.48884
4.48072
4.4709
4.4594
4.44627
4.43156
4.41532
4.39761
4.37849
4.35801
4.33625
4.31325
4.28909
4.26382
4.2375
4.21018
4.18189
4.15259
4.12243
4.0915
4.05987
4.0276
3.99475
3.96137
3.9275
3.89318
3.85844
3.82327
3.78769
3.7518
3.71566
3.67934
3.64289
3.60635
3.56977
3.53321
3.4967
3.46031
3.42414
3.38828
3.35281
3.31786
3.28275
3.24639
0.00365839
0.0412809
0.0661295
0.0762781
0.0800664
0.0807521
0.0794123
0.0768552
0.0739685
0.0713835
0.0694406
0.068343
0.0679548
0.0682356
0.0694364
0.0714882
0.0743259
0.0779047
0.0821864
0.0871432
0.0927297
0.0989126
0.105649
0.112924
0.120707
0.12902
0.137903
0.147456
0.157797
0.169073
0.181396
0.194863
0.20951
0.225309
0.242192
0.260049
0.278775
0.298249
0.318394
0.33913
0.36043
0.382268
0.404663
0.427647
0.451294
0.47567
0.500881
0.527034
0.554242
0.582624
0.612303
0.643408
0.676054
0.710366
0.746454
0.784426
0.824376
0.866396
0.910565
0.956951
1.00561
1.05657
1.10985
1.1654
1.22321
1.2832
1.34529
1.40935
1.47525
1.54279
1.61177
1.682
1.75326
1.82536
1.89813
1.97137
2.04492
2.11861
2.1925
2.26653
2.34064
2.41468
2.48857
2.56225
2.63561
2.70852
2.78083
2.85247
2.92346
2.99372
3.06323
3.13193
3.19979
3.26676
3.33277
3.39777
3.4617
3.52451
3.58616
3.6466
3.70581
3.76371
3.82027
3.8754
3.92907
3.98119
4.03175
4.08067
4.12792
4.17343
4.21717
4.25905
4.29905
4.3371
4.37319
4.40728
4.43936
4.46941
4.4974
4.52332
4.54717
4.56893
4.5886
4.60622
4.62179
4.63532
4.64684
4.65637
4.66391
4.66948
4.67309
4.67477
4.67458
4.67268
4.66873
4.66291
4.65526
4.64582
4.63463
4.62172
4.60714
4.59094
4.57316
4.55387
4.53312
4.51098
4.4875
4.46276
4.43682
4.40973
4.38157
4.35239
4.32222
4.29106
4.25903
4.22621
4.19267
4.15847
4.12367
4.08831
4.05245
4.01613
3.97938
3.94217
3.90452
3.86655
3.82833
3.78993
3.75138
3.71275
3.67406
3.63538
3.59671
3.55815
3.51979
3.48174
3.44406
3.40692
3.36969
3.33163
0.00460798
0.0474357
0.0733626
0.0836792
0.0873351
0.0877784
0.0859827
0.0832018
0.080513
0.0784509
0.0772932
0.0768824
0.0770075
0.0779682
0.0797472
0.0822713
0.085487
0.0893469
0.0938299
0.09892
0.104604
0.110884
0.117755
0.125246
0.133379
0.142222
0.151821
0.162274
0.173632
0.185974
0.199313
0.213674
0.229012
0.245274
0.262389
0.280272
0.298865
0.318092
0.337932
0.358334
0.379316
0.40086
0.423046
0.445921
0.469554
0.49397
0.519335
0.545769
0.573377
0.602269
0.632612
0.66454
0.698208
0.733763
0.771357
0.811131
0.853213
0.897726
0.944758
0.994396
1.0467
1.10173
1.15942
1.21971
1.28252
1.34773
1.41521
1.48481
1.55631
1.62945
1.70393
1.77942
1.8555
1.93211
2.0092
2.08654
2.16395
2.24126
2.31872
2.39622
2.47365
2.55082
2.62779
2.70458
2.78101
2.85688
2.9321
3.00661
3.0803
3.15311
3.22498
3.29588
3.36577
3.4346
3.5023
3.56882
3.63409
3.69808
3.76076
3.8221
3.88206
3.9406
3.99765
4.05316
4.10707
4.15932
4.20988
4.2587
4.30575
4.35096
4.39428
4.43566
4.47504
4.51238
4.54765
4.58085
4.61195
4.64093
4.66779
4.6925
4.71507
4.73549
4.75379
4.76997
4.78407
4.79611
4.80612
4.81412
4.82013
4.82416
4.82625
4.82641
4.82489
4.82136
4.81587
4.80853
4.79937
4.78842
4.7757
4.76125
4.74512
4.72734
4.70796
4.68704
4.66465
4.64083
4.61566
4.58919
4.5615
4.53264
4.50269
4.47168
4.43969
4.40681
4.37306
4.33849
4.30318
4.26717
4.23054