/*--------------------------------*- C++ -*----------------------------------*\
  =========                 |
  \\      /  F ield         | OpenFOAM: The Open Source CFD Toolbox
   \\    /   O peration     | Website:  https://openfoam.org
    \\  /    A nd           | Version:  13
     \\/     M anipulation  |
\*---------------------------------------------------------------------------*/
FoamFile
{
    format      ascii;
    class       volScalarField;
    location    "1200";
    object      nut;
}
// * * * * * * * * * * * * * * * * * * * * * * * * * * * * * * * * * * * * * //

dimensions      [0 2 -1 0 0 0 0];

internalField   nonuniform List<scalar> 
12225
(
4.40271e-06
1.75511e-05
2.13678e-05
3.90732e-05
3.32209e-05
4.26051e-05
3.32112e-05
2.28218e-05
2.02839e-05
2.07299e-05
2.27763e-05
1.50052e-05
1.39168e-05
1.54265e-05
1.6863e-05
2.43386e-05
3.53649e-05
2.81454e-05
6.62453e-09
1.55191e-08
5.8612e-08
2.16021e-07
8.46126e-07
3.27677e-06
5.08353e-06
7.70975e-06
1.06767e-05
1.41562e-05
1.77153e-05
1.99547e-05
2.93813e-05
2.85973e-05
3.16562e-05
3.71716e-05
4.23598e-05
4.64541e-05
4.15056e-08
5.73304e-08
1.44007e-07
4.26344e-07
1.33082e-06
3.79743e-06
1.32111e-05
1.73429e-05
3.0779e-05
3.18772e-05
3.91428e-05
4.2936e-05
4.4404e-05
4.32004e-05
4.26422e-05
4.21488e-05
4.23395e-05
4.09569e-05
2.81367e-07
2.80958e-07
7.98412e-07
2.5284e-06
8.36376e-06
2.21207e-05
4.76535e-05
8.1211e-05
0.000112322
0.000129645
0.000135763
0.000133534
0.000126993
0.000116683
0.000104977
9.04205e-05
7.79704e-05
6.44326e-05
2.18224e-06
1.86207e-06
4.47974e-06
1.16292e-05
2.88246e-05
6.41768e-05
0.000124432
0.000200946
0.000267699
0.00030524
0.000312155
0.000305323
0.000286739
0.000263742
0.00023541
0.000207608
0.000176631
0.00015397
1.67496e-05
1.20805e-05
1.84643e-05
3.71904e-05
7.74208e-05
0.000149563
0.000256177
0.000371991
0.000461333
0.00050539
0.000509745
0.000496356
0.00047099
0.000430029
0.000395993
0.000347894
0.000322472
0.000273026
0.000177868
4.28165e-05
5.63154e-05
9.51078e-05
0.000174509
0.000292966
0.000433583
0.000554603
0.000634132
0.000667439
0.000668229
0.000652419
0.000622687
0.000574073
0.000536023
0.000485784
0.000453245
0.000417533
0.000397456
0.000231155
0.00026109
0.000196624
0.000290859
0.000438524
0.00058788
0.000684856
0.000740224
0.00076427
0.000767906
0.000753974
0.000728635
0.000690765
0.000654615
0.000609027
0.000574505
0.000542392
0.000682095
0.000581463
0.00057355
0.000559215
0.000601836
0.000670141
0.000750391
0.000744053
0.000765936
0.000794182
0.000805814
0.000806263
0.000793457
0.000771466
0.000739787
0.000701129
0.000676466
0.000648407
0.000812325
0.000788188
0.000781456
0.000776392
0.00078437
0.000800014
0.00081673
0.00082504
0.000829054
0.000834365
0.000831384
0.000829946
0.000826532
0.000816192
0.000800192
0.000774222
0.00075413
0.000722199
0.000844372
0.000839938
0.000837782
0.000836128
0.000836481
0.000838054
0.000840428
0.00084153
0.000842475
0.000842654
0.000842965
0.000842102
0.000840189
0.000836216
0.00083031
0.000816076
0.000808714
0.000783675
0.000850139
0.00084869
0.00084763
0.000846722
0.000846083
0.000845759
0.000845544
0.000845377
0.000844876
0.000844848
0.000843994
0.000844676
0.000843293
0.000843245
0.000840515
0.000834744
0.000829804
0.000820003
0.00085132
0.000850369
0.000849515
0.000848715
0.000848006
0.000847348
0.000846739
0.000846212
0.000845546
0.000845131
0.000844488
0.000844242
0.000844012
0.000843157
0.000842719
0.000840983
0.000839396
0.000836596
0.000851514
0.000850639
0.000849825
0.000849035
0.000848321
0.000847606
0.000846966
0.000846324
0.000845733
0.000845122
0.000844622
0.000844065
0.000843726
0.000843152
0.000842761
0.000841969
0.000841297
0.000840209
0.000851537
0.000850671
0.000849857
0.000849072
0.000848344
0.000847631
0.000846974
0.000846325
0.000845732
0.000845129
0.000844597
0.000844046
0.000843579
0.000843076
0.000842641
0.00084214
0.000841675
0.000841144
0.000851538
0.000850673
0.000849855
0.000849073
0.000848334
0.000847626
0.000846957
0.000846313
0.000845706
0.000845118
0.000844566
0.000844028
0.000843525
0.000843035
0.000842575
0.000842123
0.000841693
0.000841271
0.000851537
0.000850673
0.000849851
0.00084907
0.000848327
0.000847619
0.000846945
0.000846302
0.000845689
0.000845103
0.000844544
0.000844009
0.000843498
0.000843009
0.000842541
0.000842093
0.000841665
0.000841254
0.000851539
0.000850678
0.000849857
0.000849077
0.000848334
0.000847627
0.000846953
0.00084631
0.000845696
0.000845109
0.000844548
0.000844013
0.0008435
0.00084301
0.00084254
0.000842092
0.000841662
0.000841252
0.000851537
0.000850674
0.00084985
0.000849069
0.000848324
0.000847616
0.000846938
0.000846293
0.000845676
0.000845087
0.000844523
0.000843986
0.00084347
0.000842979
0.000842508
0.000842059
0.000841626
0.000841216
0.000851534
0.000850675
0.000849846
0.000849069
0.000848325
0.000847614
0.000846907
0.000846234
0.000845573
0.000844956
0.000844359
0.000843807
0.000843274
0.000842782
0.000842302
0.000841861
0.000841423
0.000841027
0.000851474
0.000850675
0.000849728
0.000848945
0.000848271
0.000847364
0.000846211
0.00084508
0.000843828
0.000842807
0.00084177
0.000840985
0.000840246
0.000839715
0.000839193
0.000838814
0.00083844
0.000838128
0.000850054
0.000850831
0.000846699
0.000845233
0.000845337
0.000842467
0.000838211
0.000832351
0.00082657
0.000822106
0.000816876
0.000813918
0.000811683
0.000810293
0.000809494
0.000808668
0.000810852
0.000804581
0.000829306
0.000856402
0.000809335
0.000765297
0.000785199
0.000777997
0.000759167
0.000741162
0.000722063
0.000706146
0.000689721
0.000678731
0.000669347
0.000659827
0.000654949
0.000653445
0.000645946
0.000643657
0.000650565
0.00103411
0.000554652
0.000467416
0.000482079
0.000531742
0.000530209
0.000515054
0.000494696
0.00046961
0.000447263
0.000431193
0.000419745
0.000412093
0.000405765
0.000402704
0.000400268
0.000400458
0.000206824
0.0249706
0.000235281
0.000173435
0.000197586
0.00027912
0.000243077
0.000266993
0.000277626
0.000253068
0.000242809
0.000221424
0.000199722
0.000182149
0.000171384
0.000165461
0.000166172
0.000161505
6.00616e-05
2.29117e-05
1.8598e-05
3.22797e-05
3.95222e-05
7.49387e-05
6.6399e-05
6.81403e-05
6.70109e-05
7.38379e-05
6.91912e-05
6.62628e-05
5.50762e-05
5.24506e-05
5.1969e-05
4.84375e-05
4.6317e-05
4.38619e-05
1.58203e-05
1.30252e-05
6.43317e-06
9.4569e-06
7.29571e-06
8.87032e-06
9.86038e-06
1.03017e-05
9.85708e-06
9.06029e-06
8.2552e-06
7.72486e-06
7.33438e-06
7.33624e-06
7.17987e-06
7.42489e-06
7.65456e-06
7.39394e-06
3.30587e-06
2.03707e-06
2.85291e-06
4.59516e-06
3.08135e-06
1.95204e-06
2.3061e-06
2.01966e-06
2.79227e-06
3.94707e-06
5.30326e-06
6.66591e-06
7.72042e-06
8.65127e-06
8.0818e-06
9.5109e-06
9.10356e-06
9.09934e-06
2.5556e-07
1.76799e-07
6.38782e-07
2.25692e-06
5.7382e-06
7.36125e-06
1.04384e-05
1.61399e-05
2.44048e-05
2.72296e-05
2.92372e-05
3.20772e-05
3.28847e-05
3.48436e-05
3.41956e-05
3.37951e-05
3.35788e-05
3.42392e-05
1.0798e-05
1.57473e-05
1.90347e-05
2.09356e-05
2.19775e-05
2.20979e-05
2.20627e-05
2.17029e-05
2.12527e-05
2.08076e-05
2.03656e-05
1.99533e-05
1.95552e-05
1.91975e-05
1.88605e-05
1.85706e-05
1.83115e-05
1.80971e-05
1.31694e-12
1.49071e-10
7.63594e-10
3.01323e-09
1.00498e-08
3.01456e-08
8.1419e-08
1.67179e-07
2.78745e-07
4.01415e-07
5.1583e-07
6.07871e-07
6.73161e-07
7.06494e-07
7.03103e-07
6.80661e-07
6.37623e-07
5.66559e-07
4.78991e-07
4.07734e-07
3.42446e-07
2.80181e-07
2.19451e-07
1.63095e-07
1.11063e-07
6.82711e-08
3.77874e-08
1.92626e-08
9.56744e-09
4.90626e-09
2.70782e-09
1.68237e-09
1.35016e-09
1.65915e-09
3.70224e-09
8.44864e-09
6.38251e-08
1.1144e-07
2.55092e-07
3.90274e-07
4.42773e-07
4.11974e-07
3.40115e-07
2.82911e-07
2.77227e-07
3.12352e-07
3.78443e-07
5.71497e-07
9.10039e-07
2.12649e-06
5.63101e-06
1.4976e-05
2.74457e-05
3.68382e-05
3.80203e-05
2.5036e-05
3.69875e-05
3.5105e-05
4.09792e-05
4.19628e-05
3.7292e-05
3.39825e-05
3.46771e-05
3.58817e-05
3.15232e-05
3.3223e-05
3.35952e-05
3.41946e-05
3.47643e-05
3.53236e-05
3.58632e-05
3.64127e-05
3.69364e-05
3.74725e-05
3.79874e-05
3.85117e-05
3.90204e-05
3.95356e-05
4.004e-05
4.05491e-05
4.10501e-05
4.15545e-05
4.20528e-05
4.25541e-05
4.30497e-05
4.35481e-05
4.40414e-05
4.45378e-05
4.50312e-05
4.55279e-05
4.60228e-05
4.65159e-05
4.70059e-05
4.74934e-05
4.79787e-05
4.84613e-05
4.89414e-05
4.94188e-05
4.98944e-05
5.0369e-05
5.08453e-05
5.13282e-05
5.18256e-05
5.23211e-05
5.28223e-05
5.33292e-05
5.38429e-05
5.43651e-05
5.48951e-05
5.54351e-05
5.5984e-05
5.65443e-05
5.71151e-05
5.76985e-05
5.82944e-05
5.89045e-05
5.95295e-05
6.01701e-05
6.08271e-05
6.15012e-05
6.21951e-05
6.29102e-05
6.36502e-05
6.44143e-05
6.52072e-05
6.6027e-05
6.68809e-05
6.77667e-05
6.86931e-05
6.96408e-05
7.0677e-05
7.16368e-05
7.27954e-05
7.38452e-05
7.5131e-05
7.62522e-05
7.75795e-05
7.78379e-05
7.75754e-05
7.72905e-05
7.69934e-05
7.66806e-05
7.63569e-05
7.60219e-05
7.56779e-05
7.53243e-05
7.49633e-05
7.45941e-05
7.42192e-05
7.38375e-05
7.34516e-05
7.30603e-05
7.26656e-05
7.22661e-05
7.1864e-05
7.14586e-05
7.10524e-05
7.06445e-05
7.02374e-05
6.9831e-05
6.94276e-05
6.90269e-05
6.86301e-05
6.82369e-05
6.78479e-05
6.74628e-05
6.70818e-05
6.67056e-05
6.63335e-05
6.59671e-05
6.56045e-05
6.52471e-05
6.48916e-05
6.45389e-05
6.41807e-05
6.38118e-05
6.34186e-05
6.29724e-05
6.24224e-05
6.09748e-05
6.5188e-12
1.06723e-09
1.4186e-08
7.28789e-08
3.09966e-07
1.03731e-06
2.4796e-06
4.62398e-06
7.30915e-06
1.04197e-05
1.36478e-05
1.66879e-05
1.93618e-05
2.13531e-05
2.27073e-05
2.31316e-05
2.30047e-05
2.24498e-05
2.03189e-05
1.78185e-05
1.41596e-05
1.06593e-05
7.62204e-06
5.26561e-06
3.37244e-06
2.09874e-06
1.27901e-06
7.79207e-07
4.78232e-07
2.97557e-07
1.96899e-07
1.42848e-07
1.2934e-07
1.30409e-07
2.63194e-07
2.65605e-07
3.91641e-06
6.65218e-06
1.39328e-05
1.9981e-05
2.2555e-05
2.17497e-05
1.97997e-05
1.75469e-05
1.63518e-05
1.70426e-05
1.74439e-05
1.94758e-05
2.54511e-05
3.64128e-05
4.67935e-05
5.82295e-05
6.80398e-05
7.76062e-05
8.59925e-05
9.13236e-05
0.00010492
0.000114457
0.000127067
0.000145113
0.000155987
0.000166594
0.000179752
0.000195586
0.000202698
0.000216566
0.000227421
0.00023864
0.000249439
0.000259646
0.000269697
0.000279343
0.000288813
0.000298001
0.000307027
0.000315846
0.000324522
0.000333039
0.000341429
0.000349694
0.000357844
0.000365888
0.000373828
0.000381674
0.000389421
0.000397082
0.000404651
0.000412145
0.000419562
0.000426914
0.000434207
0.000441428
0.000448574
0.000455636
0.000462609
0.000469478
0.000476225
0.000482818
0.000489217
0.000495354
0.00050114
0.000506457
0.000511131
0.000515826
0.000520333
0.00052475
0.000529033
0.000533197
0.000537231
0.000541133
0.000544899
0.000548525
0.000552005
0.000555336
0.000558513
0.000561534
0.000564394
0.00056709
0.000569616
0.000571964
0.000574131
0.000576117
0.000577922
0.000579544
0.000580981
0.000582226
0.00058328
0.000584142
0.000584818
0.000585352
0.000585779
0.000585733
0.000585811
0.000585508
0.000585356
0.000584888
0.00058451
0.000584111
0.000583746
0.000583211
0.000582514
0.000581658
0.000580653
0.00057951
0.000578236
0.000576841
0.00057533
0.00057371
0.000571986
0.000570168
0.000568274
0.000566291
0.000564231
0.000562084
0.00055987
0.000557582
0.000555239
0.000552836
0.000550398
0.000547918
0.000545417
0.00054289
0.00054035
0.000537793
0.000535226
0.000532645
0.000530051
0.000527444
0.000524825
0.000522194
0.000519551
0.000516887
0.000514188
0.000511434
0.000508561
0.000505492
0.000502109
0.000498095
0.000492752
0.000477614
1.50789e-11
2.5565e-09
4.88143e-08
2.94758e-07
1.11575e-06
2.58397e-06
5.66669e-06
1.00171e-05
1.54802e-05
2.17893e-05
2.86155e-05
3.54706e-05
4.17677e-05
4.716e-05
5.14854e-05
5.43246e-05
5.62279e-05
5.6929e-05
5.62261e-05
5.39282e-05
4.98701e-05
4.47644e-05
3.78315e-05
3.04129e-05
2.33557e-05
1.70249e-05
1.17454e-05
7.81067e-06
5.01059e-06
3.15768e-06
2.11118e-06
1.49836e-06
1.26118e-06
9.89317e-07
1.988e-06
3.4816e-06
1.61997e-05
3.25453e-05
5.15511e-05
6.26182e-05
6.30241e-05
5.56278e-05
4.44969e-05
4.15512e-05
4.67022e-05
5.40839e-05
6.26636e-05
7.49673e-05
8.67062e-05
9.89802e-05
0.000114597
0.00013235
0.000152167
0.000174544
0.000198763
0.000226782
0.000258213
0.000287775
0.0003168
0.000349371
0.000377018
0.000404696
0.000431022
0.000458845
0.00048196
0.000506936
0.000529514
0.000551526
0.000572627
0.00059305
0.000612936
0.000632263
0.000651181
0.000669678
0.000687846
0.000705683
0.000723243
0.000740531
0.000757579
0.000774393
0.000790989
0.000807375
0.000823559
0.000839548
0.000855345
0.000870955
0.000886381
0.000901627
0.000916697
0.000931597
0.000946325
0.000960862
0.000975196
0.000989309
0.00100318
0.0010168
0.00103012
0.00104311
0.00105574
0.00106796
0.00107975
0.00109109
0.00110209
0.00111293
0.00112348
0.0011338
0.00114384
0.00115362
0.00116311
0.00117233
0.00118124
0.00118985
0.00119814
0.00120611
0.00121374
0.00122104
0.00122798
0.00123457
0.0012408
0.00124664
0.0012521
0.00125718
0.00126187
0.00126617
0.00127008
0.00127359
0.00127672
0.00127945
0.00128179
0.00128374
0.00128533
0.00128637
0.00128722
0.00128743
0.0012878
0.00128786
0.00128768
0.00128709
0.00128625
0.00128505
0.00128349
0.00128159
0.00127935
0.0012768
0.00127397
0.00127086
0.0012675
0.0012639
0.00126007
0.00125603
0.0012518
0.00124739
0.0012428
0.00123804
0.00123311
0.00122804
0.00122283
0.00121751
0.00121209
0.00120659
0.00120103
0.00119543
0.00118978
0.0011841
0.0011784
0.00117266
0.00116689
0.00116109
0.00115527
0.00114942
0.00114355
0.00113763
0.00113164
0.00112552
0.00111916
0.00111241
0.00110496
0.00109612
0.00108402
0.00105664
5.77227e-11
9.7903e-09
1.61901e-07
6.86546e-07
2.25096e-06
6.08937e-06
1.23897e-05
2.09057e-05
3.11603e-05
4.21584e-05
5.29843e-05
6.31014e-05
7.19668e-05
7.91701e-05
8.45633e-05
8.84941e-05
9.05285e-05
9.10145e-05
9.01121e-05
8.78936e-05
8.39831e-05
7.91973e-05
7.26792e-05
6.47576e-05
5.53343e-05
4.53513e-05
3.55245e-05
2.69175e-05
1.98991e-05
1.45617e-05
1.03459e-05
7.92083e-06
5.89917e-06
6.43155e-06
1.00235e-05
2.24726e-05
4.59657e-05
6.56251e-05
7.85311e-05
7.85069e-05
7.49967e-05
7.42587e-05
7.70583e-05
8.36721e-05
9.38586e-05
0.000108289
0.000120314
0.000135818
0.000160432
0.000183715
0.000214775
0.000248001
0.000285732
0.000326141
0.000368794
0.00041283
0.000457436
0.000500519
0.000542812
0.000585346
0.000624857
0.000663666
0.000700391
0.000737305
0.00077133
0.000804786
0.000836649
0.000867646
0.000897712
0.000927019
0.000955653
0.000983677
0.00101118
0.00103819
0.00106477
0.00109095
0.00111676
0.0011422
0.00116732
0.0011921
0.00121657
0.00124073
0.00126459
0.00128815
0.00131142
0.00133439
0.00135707
0.00137946
0.00140155
0.00142336
0.00144486
0.00146605
0.0014869
0.00150741
0.00152755
0.00154731
0.00156667
0.0015856
0.00160409
0.00162214
0.00163974
0.00165693
0.00167375
0.00169024
0.00170634
0.00172207
0.00173738
0.00175229
0.00176677
0.00178082
0.00179442
0.00180755
0.00182021
0.00183239
0.00184407
0.00185524
0.00186589
0.00187602
0.00188561
0.00189464
0.00190312
0.00191103
0.00191839
0.00192519
0.00193142
0.00193709
0.00194218
0.00194672
0.00195068
0.00195407
0.00195689
0.00195906
0.00196073
0.00196174
0.00196266
0.00196316
0.00196311
0.0019625
0.00196144
0.00195985
0.00195776
0.00195516
0.00195208
0.00194855
0.00194459
0.00194023
0.00193548
0.00193038
0.00192493
0.00191917
0.00191312
0.00190678
0.00190017
0.0018933
0.00188618
0.00187883
0.00187128
0.00186355
0.00185566
0.00184764
0.00183952
0.00183131
0.00182303
0.00181468
0.00180628
0.00179782
0.00178929
0.00178072
0.0017721
0.00176343
0.00175472
0.00174595
0.00173708
0.00172803
0.00171867
0.0017088
0.00169803
0.00168534
0.00166832
0.00163593
1.93136e-10
2.96979e-08
3.59872e-07
1.68855e-06
5.80711e-06
1.43484e-05
2.70491e-05
4.2666e-05
5.93295e-05
7.54147e-05
8.9699e-05
0.000101483
0.000110206
0.000116677
0.000120582
0.000122529
0.000122876
0.000121861
0.000119665
0.000116426
0.000111904
0.000106595
0.000100119
9.26133e-05
8.34737e-05
7.3039e-05
6.1647e-05
5.03968e-05
4.03969e-05
3.22244e-05
2.58289e-05
1.98986e-05
1.89275e-05
2.39949e-05
4.0183e-05
6.57329e-05
8.32472e-05
9.21539e-05
9.61533e-05
9.87593e-05
0.000102976
0.00011067
0.00012286
0.000137964
0.000149419
0.000167534
0.000195772
0.00022547
0.000263553
0.000303374
0.000349961
0.000398228
0.000450001
0.000503027
0.000556927
0.000610683
0.000663832
0.000715552
0.000766167
0.000815795
0.000863218
0.000909561
0.000954367
0.000997977
0.00103969
0.00108039
0.00111981
0.00115826
0.0011958
0.00123255
0.00126858
0.00130396
0.00133876
0.00137301
0.00140675
0.00144002
0.00147283
0.0015052
0.00153714
0.00156866
0.00159976
0.00163045
0.00166074
0.00169062
0.0017201
0.00174917
0.00177784
0.00180609
0.00183394
0.00186138
0.0018884
0.001915
0.00194115
0.00196685
0.00199209
0.00201685
0.00204113
0.00206491
0.00208821
0.00211102
0.00213335
0.00215522
0.00217662
0.00219756
0.002218
0.00223794
0.00225735
0.00227624
0.00229457
0.00231235
0.00232955
0.00234616
0.00236217
0.00237757
0.00239235
0.0024065
0.00242
0.00243284
0.00244502
0.00245652
0.00246735
0.00247749
0.00248695
0.00249572
0.00250382
0.00251123
0.00251795
0.00252398
0.00252933
0.00253399
0.0025379
0.00254103
0.00254355
0.00254535
0.00254687
0.00254788
0.00254814
0.00254774
0.00254673
0.00254509
0.00254283
0.00253997
0.00253653
0.00253254
0.00252802
0.00252299
0.00251749
0.00251154
0.00250517
0.00249839
0.00249123
0.0024837
0.00247583
0.00246761
0.00245909
0.00245026
0.00244115
0.0024318
0.00242224
0.00241249
0.00240259
0.00239254
0.00238239
0.00237212
0.00236176
0.0023513
0.00234074
0.0023301
0.00231937
0.00230858
0.0022977
0.00228673
0.00227563
0.00226434
0.00225272
0.00224057
0.00222749
0.0022124
0.00219266
0.00216004
6.09803e-10
7.37998e-08
8.82144e-07
4.41069e-06
1.49069e-05
3.22681e-05
5.3773e-05
7.65537e-05
9.75136e-05
0.000114714
0.000127683
0.000137321
0.00014361
0.000147148
0.000148641
0.00014856
0.000147216
0.0001448
0.000141479
0.000137301
0.000132125
0.000126346
0.000119719
0.000111946
0.000103053
9.087e-05
7.58498e-05
6.14134e-05
4.78325e-05
3.64772e-05
3.12297e-05
3.18065e-05
4.16771e-05
6.25428e-05
8.56633e-05
0.000102688
0.000113137
0.000119412
0.000125146
0.000134132
0.000148658
0.00016299
0.000174608
0.00019499
0.00022282
0.000255629
0.000296648
0.000341333
0.000392392
0.000445502
0.000502675
0.000561
0.00062104
0.000681336
0.000741517
0.000800963
0.000859446
0.000916503
0.000972213
0.00102698
0.0010801
0.00113188
0.00118218
0.0012312
0.00127878
0.00132525
0.00137061
0.00141501
0.00145852
0.00150123
0.0015432
0.0015845
0.00162516
0.00166524
0.00170474
0.0017437
0.00178212
0.00182002
0.0018574
0.00189427
0.00193062
0.00196645
0.00200178
0.00203659
0.00207089
0.00210468
0.00213795
0.00217071
0.00220295
0.00223468
0.00226589
0.00229657
0.00232671
0.00235632
0.00238537
0.00241388
0.00244183
0.00246922
0.00249606
0.00252235
0.00254809
0.00257328
0.00259791
0.00262197
0.00264543
0.0026683
0.00269054
0.00271216
0.00273314
0.00275346
0.00277311
0.00279208
0.00281036
0.00282795
0.00284482
0.00286097
0.0028764
0.00289109
0.00290504
0.00291825
0.00293069
0.00294239
0.00295333
0.00296353
0.00297296
0.00298165
0.00298959
0.00299677
0.00300322
0.0030089
0.00301363
0.0030177
0.00302102
0.00302354
0.0030257
0.00302725
0.00302797
0.00302797
0.00302727
0.00302588
0.00302382
0.00302109
0.00301773
0.00301375
0.00300919
0.00300406
0.00299838
0.00299219
0.00298552
0.00297837
0.00297078
0.00296276
0.00295433
0.0029455
0.00293629
0.00292672
0.00291682
0.00290661
0.00289613
0.0028854
0.00287446
0.00286333
0.00285204
0.00284058
0.00282898
0.00281723
0.00280534
0.00279332
0.00278119
0.00276895
0.0027566
0.00274414
0.00273154
0.00271875
0.00270567
0.00269209
0.00267768
0.00266148
0.00264108
0.00261021
1.93074e-09
1.84466e-07
2.31827e-06
1.22517e-05
3.3213e-05
6.08951e-05
8.89027e-05
0.000112189
0.000130202
0.000143678
0.000153587
0.000159887
0.000163525
0.000165072
0.000165047
0.000163805
0.00016158
0.000158515
0.000154631
0.000149903
0.000144222
0.000137919
0.000130472
0.00011948
0.000102923
8.80738e-05
7.4843e-05
6.2915e-05
5.37456e-05
5.078e-05
5.77119e-05
7.25652e-05
9.66689e-05
0.000115849
0.000129915
0.000139891
0.000147851
0.000157626
0.000172753
0.000186051
0.000196847
0.000216991
0.000243796
0.000276887
0.000317251
0.000363559
0.000416071
0.000471952
0.000531576
0.000592805
0.000656066
0.000719946
0.000784354
0.000848543
0.00091222
0.000974796
0.00103624
0.00109695
0.00115625
0.00121441
0.00127125
0.00132679
0.00138103
0.00143406
0.0014859
0.00153667
0.00158643
0.00163528
0.00168326
0.00173046
0.00177692
0.00182269
0.0018678
0.00191227
0.00195613
0.00199938
0.00204204
0.00208409
0.00212554
0.00216639
0.00220663
0.00224626
0.00228528
0.00232369
0.00236149
0.00239868
0.00243526
0.00247123
0.00250659
0.00254134
0.00257549
0.00260903
0.00264195
0.00267426
0.00270596
0.00273703
0.00276748
0.00279731
0.00282651
0.00285507
0.00288298
0.00291025
0.00293689
0.00296287
0.00298819
0.00301283
0.00303679
0.00306006
0.00308262
0.00310447
0.00312562
0.00314605
0.00316574
0.00318469
0.00320289
0.00322032
0.00323699
0.00325288
0.003268
0.00328233
0.00329588
0.00330864
0.00332062
0.00333182
0.00334223
0.00335186
0.00336072
0.0033688
0.00337613
0.0033826
0.00338812
0.00339297
0.00339702
0.00340025
0.00340304
0.00340516
0.00340643
0.00340694
0.00340671
0.00340576
0.0034041
0.00340175
0.00339873
0.00339507
0.00339078
0.00338592
0.00338054
0.0033746
0.00336813
0.00336115
0.00335367
0.00334572
0.0033373
0.00332843
0.00331913
0.00330942
0.00329932
0.00328886
0.00327807
0.00326698
0.00325562
0.00324402
0.00323219
0.00322016
0.00320791
0.00319547
0.00318284
0.00317004
0.00315708
0.00314398
0.00313074
0.00311737
0.00310386
0.00309016
0.00307621
0.00306185
0.00304682
0.00303032
0.00301047
0.00298239
5.82861e-09
4.85883e-07
6.14081e-06
2.71652e-05
5.93273e-05
9.31795e-05
0.000122004
0.000143875
0.000159129
0.000168938
0.000174222
0.000176608
0.000177115
0.000176309
0.000174503
0.000171929
0.000168667
0.00016461
0.000159706
0.000153985
0.000147687
0.000140554
0.000129065
0.000112007
9.67408e-05
8.36503e-05
7.39815e-05
7.0764e-05
7.56778e-05
8.35352e-05
0.000103472
0.000128986
0.000152298
0.0001648
0.000174688
0.000185698
0.000200322
0.000206601
0.000216991
0.000235194
0.000259611
0.00029128
0.000329673
0.000374539
0.000425649
0.000481696
0.000541715
0.000604054
0.000668416
0.000733825
0.000800134
0.000866665
0.000933163
0.000999097
0.00106409
0.00112858
0.00119205
0.00125452
0.00131587
0.00137609
0.00143514
0.00149304
0.00154979
0.00160546
0.00166007
0.0017137
0.0017664
0.00181824
0.00186926
0.00191952
0.00196905
0.0020179
0.00206607
0.0021136
0.00216049
0.00220673
0.00225231
0.00229724
0.0023415
0.00238509
0.00242799
0.0024702
0.00251172
0.00255255
0.00259268
0.00263213
0.00267088
0.00270893
0.00274631
0.002783
0.00281903
0.00285438
0.00288906
0.00292306
0.0029564
0.00298907
0.00302106
0.00305238
0.00308301
0.00311294
0.00314217
0.00317073
0.00319861
0.0032258
0.00325228
0.00327806
0.00330312
0.00332745
0.00335105
0.0033739
0.003396
0.00341735
0.00343793
0.00345774
0.00347678
0.00349505
0.00351253
0.00352922
0.00354513
0.00356025
0.00357458
0.00358813
0.00360088
0.00361286
0.00362405
0.00363447
0.00364411
0.00365298
0.00366112
0.00366831
0.00367464
0.0036803
0.00368515
0.00368918
0.00369274
0.00369555
0.00369755
0.00369878
0.00369927
0.00369903
0.00369806
0.0036964
0.00369405
0.00369104
0.00368739
0.00368312
0.00367824
0.00367277
0.00366674
0.00366016
0.00365305
0.00364541
0.00363727
0.00362863
0.00361952
0.00360994
0.00359993
0.00358952
0.00357872
0.00356758
0.00355611
0.00354435
0.0035323
0.00351999
0.00350742
0.00349461
0.00348156
0.00346829
0.00345482
0.00344117
0.00342736
0.00341339
0.00339926
0.00338497
0.00337046
0.00335564
0.0033403
0.00332387
0.00330495
0.00328006
1.54659e-08
1.21228e-06
1.42723e-05
4.70838e-05
8.68706e-05
0.000121525
0.000148058
0.000166563
0.000178337
0.000184842
0.00018745
0.00018725
0.000185153
0.000181891
0.00017797
0.000173612
0.000168824
0.000163602
0.000157874
0.000151434
0.000144383
0.000136427
0.00012149
0.000109466
0.000102765
0.000100885
9.62183e-05
9.96433e-05
0.000114349
0.000134509
0.000156045
0.000176564
0.000193788
0.000206392
0.000214945
0.000223415
0.000233982
0.000250447
0.000272115
0.000301005
0.000336443
0.000378482
0.000426521
0.000480021
0.000538178
0.000599734
0.00066367
0.00072906
0.000795547
0.000862623
0.000930018
0.000997371
0.00106405
0.00113029
0.00119607
0.00126099
0.001325
0.00138804
0.00145006
0.00151106
0.00157101
0.00162993
0.00168783
0.00174474
0.00180072
0.0018558
0.00191003
0.00196346
0.00201613
0.00206807
0.00211932
0.00216992
0.00221988
0.00226921
0.00231791
0.00236597
0.00241333
0.00246001
0.00250599
0.00255125
0.00259577
0.00263954
0.00268256
0.00272482
0.00276633
0.00280709
0.00284714
0.00288648
0.00292507
0.00296292
0.00300002
0.00303639
0.00307203
0.00310694
0.00314113
0.00317461
0.00320736
0.0032394
0.00327073
0.00330137
0.0033313
0.00336053
0.00338905
0.00341684
0.00344391
0.00347026
0.00349586
0.00352072
0.00354483
0.00356819
0.00359079
0.00361262
0.00363369
0.00365399
0.00367351
0.00369227
0.00371025
0.00372746
0.00374389
0.00375955
0.00377444
0.00378856
0.00380191
0.0038145
0.00382633
0.0038374
0.00384773
0.00385734
0.00386617
0.00387404
0.00388123
0.0038877
0.00389339
0.00389829
0.00390269
0.0039063
0.00390914
0.00391124
0.0039126
0.00391323
0.00391315
0.00391238
0.00391092
0.0039088
0.00390602
0.00390262
0.00389859
0.00389396
0.00388874
0.00388295
0.00387659
0.00386969
0.00386224
0.00385425
0.00384575
0.00383674
0.00382726
0.00381732
0.00380696
0.0037962
0.00378507
0.00377359
0.00376177
0.00374964
0.0037372
0.00372446
0.00371144
0.00369815
0.00368463
0.00367088
0.00365694
0.00364282
0.00362853
0.00361408
0.00359944
0.00358456
0.0035693
0.00355317
0.00353505
0.00351279
3.516e-08
2.82937e-06
2.64564e-05
7.03379e-05
0.000114354
0.00014896
0.00017246
0.00018703
0.000194831
0.00019702
0.000195483
0.000191638
0.000186491
0.000180683
0.000174604
0.000168249
0.000161696
0.000154856
0.000147711
0.000140224
0.000132141
0.000123593
0.000115385
0.000109535
0.000108503
0.000114362
0.000126408
0.000142826
0.000161007
0.000179625
0.000197155
0.000211952
0.000223024
0.000234256
0.000246624
0.000262389
0.000282012
0.000307966
0.000339978
0.000378408
0.000422629
0.000472265
0.000526698
0.000585215
0.000646929
0.00071084
0.000776202
0.000842454
0.000909274
0.000976343
0.00104322
0.0011096
0.00117596
0.00124157
0.00130656
0.00137073
0.00143402
0.00149639
0.00155782
0.00161829
0.00167782
0.0017364
0.00179404
0.00185081
0.00190673
0.00196186
0.00201625
0.00206992
0.00212289
0.00217518
0.00222687
0.00227799
0.00232854
0.00237854
0.002428
0.00247695
0.00252548
0.00257332
0.00262042
0.00266674
0.00271226
0.00275696
0.00280082
0.00284386
0.00288606
0.00292743
0.00296796
0.00300765
0.00304656
0.00308471
0.00312212
0.00315879
0.00319473
0.00322994
0.00326443
0.00329821
0.00333127
0.00336362
0.00339526
0.0034262
0.00345643
0.00348594
0.00351473
0.00354279
0.00357013
0.00359672
0.00362258
0.0036477
0.00367207
0.0036957
0.00371857
0.00374068
0.00376205
0.00378265
0.00380251
0.00382161
0.00383995
0.00385755
0.0038744
0.0038905
0.00390586
0.00392049
0.00393437
0.00394753
0.00395995
0.00397166
0.00398267
0.00399301
0.00400249
0.00401118
0.00401921
0.00402654
0.00403313
0.004039
0.00404429
0.00404883
0.00405264
0.00405573
0.00405809
0.00405976
0.00406072
0.004061
0.00406061
0.00405955
0.00405784
0.0040555
0.00405252
0.00404894
0.00404476
0.00403998
0.00403461
0.00402867
0.00402215
0.00401507
0.00400742
0.00399924
0.00399053
0.00398133
0.00397167
0.00396156
0.00395104
0.00394011
0.00392881
0.00391713
0.0039051
0.00389271
0.00388
0.00386698
0.00385368
0.00384012
0.00382633
0.00381233
0.00379815
0.0037838
0.00376929
0.00375458
0.00373962
0.00372404
0.00370688
0.00368746
6.86574e-08
5.93504e-06
4.09057e-05
9.15048e-05
0.000136741
0.000170088
0.000191594
0.000202602
0.000205925
0.000204117
0.000199084
0.000192189
0.000184384
0.000176068
0.000167688
0.000159431
0.000151324
0.000144143
0.000137852
0.000132622
0.000128574
0.000126789
0.000128142
0.000133118
0.000141905
0.000153978
0.000168511
0.000184394
0.000200454
0.000215317
0.000227884
0.000240537
0.0002548
0.000270837
0.00028968
0.000313272
0.000342099
0.000376767
0.00041688
0.000462168
0.00051209
0.000566173
0.000623843
0.000684414
0.000747131
0.000811263
0.000876267
0.000941751
0.00100745
0.00107279
0.00113799
0.00120288
0.00126727
0.00133098
0.00139392
0.00145602
0.00151723
0.00157754
0.00163695
0.00169549
0.00175316
0.00180998
0.0018659
0.00192103
0.00197544
0.00202919
0.00208236
0.00213503
0.00218741
0.0022395
0.00229112
0.00234222
0.00239282
0.00244291
0.00249249
0.00254152
0.00258991
0.00263766
0.0026847
0.00273101
0.00277655
0.0028213
0.00286524
0.00290833
0.0029506
0.00299204
0.00303267
0.00307254
0.00311164
0.00314997
0.00318756
0.0032244
0.00326051
0.0032959
0.00333056
0.0033645
0.00339773
0.00343024
0.00346204
0.00349313
0.0035235
0.00355316
0.0035821
0.00361033
0.00363783
0.0036646
0.00369064
0.00371596
0.00374054
0.00376439
0.00378751
0.00380988
0.00383153
0.00385244
0.00387262
0.00389207
0.0039108
0.00392881
0.00394609
0.00396267
0.00397854
0.0039937
0.00400816
0.00402193
0.004035
0.00404739
0.00405914
0.00407017
0.00408045
0.00409006
0.00409899
0.00410725
0.00411483
0.00412174
0.00412804
0.00413364
0.00413853
0.00414272
0.00414622
0.00414903
0.00415117
0.00415264
0.00415344
0.00415359
0.00415309
0.00415196
0.0041502
0.00414782
0.00414483
0.00414124
0.00413704
0.00413224
0.00412684
0.00412083
0.00411423
0.00410706
0.00409932
0.00409106
0.00408229
0.00407304
0.00406332
0.00405316
0.00404258
0.00403157
0.00402015
0.00400834
0.00399615
0.00398362
0.00397076
0.0039576
0.00394418
0.00393052
0.00391665
0.0039026
0.00388838
0.00387401
0.00385945
0.00384446
0.00382818
0.00381126
1.13238e-07
1.06345e-05
5.69562e-05
0.000113931
0.000160048
0.000191058
0.000208303
0.000215073
0.000214647
0.000209631
0.000201954
0.000192874
0.000183306
0.000174225
0.000165739
0.000158585
0.000152332
0.000148112
0.000145632
0.000145121
0.000146946
0.000151347
0.000158398
0.000167856
0.000179261
0.00019211
0.000205881
0.000219544
0.000232211
0.000245141
0.000260249
0.00027709
0.000295677
0.00031779
0.000344139
0.00037539
0.000411547