/*--------------------------------*- C++ -*----------------------------------*\
  =========                 |
  \\      /  F ield         | OpenFOAM: The Open Source CFD Toolbox
   \\    /   O peration     | Website:  https://openfoam.org
    \\  /    A nd           | Version:  13
     \\/     M anipulation  |
\*---------------------------------------------------------------------------*/
FoamFile
{
    format      ascii;
    class       volScalarField;
    location    "1200";
    object      omega;
}
// * * * * * * * * * * * * * * * * * * * * * * * * * * * * * * * * * * * * * //

dimensions      [0 0 -1 0 0 0 0];

internalField   nonuniform List<scalar> 
12225
(
31477.7
31477.7
31477.7
31477.7
31477.7
31477.7
39966.6
51095
44322.3
47273.7
49834.3
50063.1
51011.3
49761
44129.7
31477.7
31477.7
45608.3
6.70242e+06
3.0547e+06
1.12014e+06
442579
189158
77798
62792.2
51708.3
42547.4
36921.6
33323.1
30965
23953.8
25874.5
24271.5
22184
20333.3
19140.6
1.44324e+06
796226
350618
156263
70973.7
33454.6
18204.5
12125.5
9526.2
8420.75
7927.19
7766.11
7687.5
7801.14
7891.8
8045.15
8026.08
8367.2
388388
242475
117025
54371.6
25302.8
12084.3
6392.37
3972.21
2971.32
2589.7
2467.79
2467.2
2515.18
2602.21
2710.93
2907.94
3092.64
3384.66
93211.7
70161.9
39537.9
19957.2
9776.26
4906.45
2685.41
1709.79
1298.98
1140.74
1108.07
1110.31
1146.73
1183.54
1249.98
1298.51
1405.27
1430.75
17956
21001.6
14495.4
7984.23
4162.23
2264.23
1357.82
946.502
766.455
698.795
688.548
695.062
716.173
750.881
784.443
825.566
859.222
890.697
1987.11
7579.96
5752.4
3509.53
1972.59
1198.8
818.626
642.337
562.031
532.429
529.134
534.755
551.717
580.393
605.74
636.756
662.07
681.138
924.712
1546.06
1358.28
1798.86
1223.32
815.688
609.943
523.224
483.296
466.377
462.186
466.184
477.35
493.864
512.286
535.323
556.076
571.292
545.399
632.551
636.582
649.402
601.719
539.24
480.551
483.077
467.846
449.428
441.196
437.914
441.721
448.903
462.907
480.491
491.621
503.736
459.61
470.271
471.33
471.734
464.705
453.643
442.592
436.321
432.574
428.065
427.927
426.42
425.852
427.942
433.28
443.408
451.511
466.316
442.597
442.136
440.659
439.075
436.63
433.681
430.488
428.003
425.767
423.916
422.111
420.689
419.79
419.511
420.287
424.874
426.387
436.959
439.693
437.75
435.755
433.81
431.873
429.881
427.967
426.105
424.543
422.795
421.562
419.524
418.553
416.76
416.357
417.239
417.944
420.843
439.109
436.926
434.836
432.843
430.933
429.105
427.369
425.68
424.172
422.612
421.264
419.747
418.292
417.115
415.799
415.048
414.353
414.144
439.014
436.794
434.682
432.682
430.769
428.966
427.236
425.602
424.041
422.575
421.142
419.803
418.431
417.212
415.969
414.938
413.929
413.119
439.002
436.776
434.66
432.656
430.746
428.938
427.21
425.576
424.009
422.534
421.11
419.77
418.463
417.238
416.046
414.938
413.875
412.888
439.001
436.773
434.657
432.649
430.739
428.926
427.199
425.56
423.995
422.509
421.089
419.74
418.448
417.219
416.043
414.923
413.854
412.836
439
436.772
434.655
432.645
430.734
428.919
427.191
425.548
423.983
422.493
421.072
419.719
418.427
417.196
416.02
414.899
413.828
412.806
439
436.768
434.65
432.637
430.726
428.907
427.179
425.533
423.967
422.474
421.052
419.696
418.404
417.171
415.994
414.871
413.799
412.775
439.001
436.77
434.653
432.641
430.73
428.912
427.184
425.539
423.974
422.481
421.06
419.704
418.411
417.177
416.001
414.877
413.805
412.78
439.003
436.77
434.658
432.644
430.736
428.92
427.208
425.575
424.031
422.55
421.144
419.793
418.508
417.273
416.1
414.971
413.901
412.869
439.035
436.773
434.719
432.715
430.77
429.049
427.541
426.118
424.839
423.537
422.322
421.068
419.864
418.637
417.468
416.305
415.19
414.121
439.777
436.669
436.241
434.566
432.189
431.361
431.283
432.114
432.997
433.329
434.167
433.934
433.403
432.545
431.438
430.472
427.938
430.03
450.785
433.547
455.859
479.029
464.142
465.398
473.707
481.917
491.414
499.484
508.431
514.05
518.724
524.005
525.794
525.279
529.52
530.017
574.167
357.33
658.888
773.251
744.907
669.337
664.661
676.077
696.199
725.811
754.287
776.222
790.779
800.83
808.847
811.748
813.471
811.834
1786.56
0.358421
1476.96
1961.36
1696.6
1203.54
1365.79
1211.72
1139.59
1212.19
1227.07
1316.26
1412.58
1518.19
1579.94
1593.2
1572.31
1600.94
5620.49
12995.4
11731.5
7996.98
5511.05
3374.02
3930.11
3697.01
3487.22
2904.65
2835.68
2701.26
2977.89
2949.7
2837.85
2872.48
2917.37
2972.87
20703.6
15718.2
21108.4
16440.3
14631.9
14397.3
13012.8
11196.3
10029
9013.32
8163.43
7464.5
6898.17
6401.68
6119.21
5629.13
5442.45
5419.5
66664.6
46817.6
23005.8
12369
14992.3
21221.1
21323.3
18552.3
14189.2
10893.2
8564.38
7295.35
6510.43
6046.51
5848.36
5626.11
5548.52
5485.37
310836
172103
66858.8
28385.6
17446.7
20969.2
18257
15271.7
12751.8
12812.8
12429.4
12276.5
12120.1
11762.9
11747.1
11704.2
11661.6
11594.2
18117.5
22687.3
25077.2
26325.6
26606.7
26603.6
26447.9
26122.5
25726.4
25316.8
24902.4
24510.8
24141.3
23807.5
23504.3
23249.2
23018.2
22825.6
11463.2
2514.24
2516.41
2518.61
2520.83
2523.07
2525.32
2527.6
2529.9
2532.22
2534.57
2536.93
2539.31
2541.72
2544.15
2546.6
2549.08
2551.57
2554.09
2556.64
2559.2
2561.79
2564.41
2567.05
2569.71
2572.4
2575.12
2577.86
2580.62
2583.41
2586.23
2589.08
2591.95
2594.85
2597.77
2600.73
2603.71
2606.72
2609.76
2612.82
2615.92
2619.05
2622.2
2625.39
2628.61
2631.86
2635.14
2638.45
2641.79
2645.17
2648.58
2652.02
2655.5
2659.01
2662.55
3124.74
3157.31
3180.03
3165.71
2680.8
2684.56
3312.57
3432.25
2696.06
3402.04
3414.03
3526.27
3601.12
3680.35
3756.75
3829.02
3900.85
3969.22
4037.1
4102.37
4167.01
4229.64
4291.52
4351.82
4411.29
4469.44
4526.74
4582.85
4638.14
4692.28
4745.62
4797.85
4849.29
4899.65
4949.19
4997.68
5045.16
5091.54
5136.81
5180.93
5223.84
5265.5
5305.86
5344.92
5382.73
5419.4
5455.22
5490.61
5524.65
5557.77
5589.82
5620.83
5650.8
5679.69
5707.52
5734.23
5759.84
5784.31
5807.66
5829.84
5850.87
5870.74
5889.44
5906.94
5923.23
5938.35
5952.31
5965.18
5976.91
5987.63
5997.27
6006.03
6013.88
6021.76
6027.48
6029.19
6034.7
6032.92
6037.49
6032.31
6034.42
6030.62
6027.98
6023.82
6018.66
6012.56
6005.52
5997.72
5989.18
5980.01
5970.22
5959.9
5949.07
5937.81
5926.14
5914.13
5901.78
5889.18
5876.31
5863.27
5850.07
5836.81
5823.52
5810.33
5797.28
5784.48
5771.94
5759.69
5747.78
5736.15
5724.86
5713.87
5703.25
5692.96
5683.08
5673.53
5664.34
5655.33
5646.39
5637.09
5626.75
5614.53
5597.51
5571.12
5465.53
11463.2
1991.02
997.729
818.669
703.249
609.278
612.548
613.358
606.156
586.823
564.477
541.352
519.869
501.869
488.957
479.927
477.481
476.379
501.277
531.063
600.779
692.732
799.126
909.713
1016.28
1105.4
1171.76
1196.78
1181.13
1129.92
1029.41
900.577
747.448
622.709
547.525
488.74
454.528
448.129
455.284
474.215
505.741
537.467
573.905
647.524
766.458
940.568
1213.52
1524.14
1772.34
1932.99
2023.9
2054.68
2059.34
2027.79
1993.81
1970.84
1891.64
1840.45
1805.94
1706.74
1703.72
1700.49
1677.76
1645.73
1673.94
1656.02
1658.64
1657.38
1658.4
1662.22
1666.16
1671.76
1677.58
1684.35
1691.29
1698.78
1706.39
1714.29
1722.26
1730.36
1738.47
1746.62
1754.74
1762.82
1770.82
1778.75
1786.56
1794.23
1801.73
1809.06
1816.14
1823.01
1829.62
1836
1842.15
1848.09
1853.86
1859.53
1865.22
1871.09
1877.43
1884.57
1893.1
1900.96
1908.79
1916.29
1923.58
1930.62
1937.42
1943.97
1950.27
1956.32
1962.13
1967.69
1973
1978.07
1982.88
1987.46
1991.79
1995.88
1999.75
2003.41
2006.85
2010.1
2013.14
2015.99
2018.66
2021.15
2023.43
2025.36
2026.95
2028.56
2029.56
2030.94
2031.47
2032.53
2032.53
2032.31
2031.3
2030.07
2028.64
2027.04
2025.29
2023.4
2021.38
2019.23
2016.96
2014.59
2012.13
2009.56
2006.87
2004.11
2001.27
1998.4
1995.46
1992.5
1989.51
1986.51
1983.5
1980.52
1977.55
1974.61
1971.71
1968.84
1966.01
1963.22
1960.47
1957.78
1955.14
1952.58
1950.08
1947.68
1945.38
1943.19
1941.19
1939.43
1937.97
1937.19
1936.09
1945.97
11463.2
2009.38
800.038
605.429
631.293
654.083
637.268
590.328
534.652
480.206
430.731
389.072
355.952
329.713
309.246
293.489
281.824
273.707
269.09
269.722
277.185
289.547
315.649
352.993
402.794
460.61
523.987
581.792
625.395
649.13
642.238
616.945
566.402
503.342
433.474
382.822
369.87
378.771
400.796
432.014
493.742
593.035
725.741
910.136
1095.49
1253.04
1384.51
1498.69
1543.21
1549.39
1514.25
1460.78
1402.1
1343.28
1290.95
1245.96
1204.02
1175.89
1156.31
1129.3
1120.41
1111.65
1106.51
1098.17
1099.05
1095.44
1095.94
1096.75
1098.64
1101.14
1104.03
1107.39
1110.98
1114.86
1118.89
1123.09
1127.38
1131.77
1136.2
1140.67
1145.16
1149.65
1154.13
1158.59
1163.02
1167.4
1171.72
1175.98
1180.17
1184.28
1188.32
1192.28
1196.16
1199.99
1203.76
1207.5
1211.24
1215.01
1218.84
1222.78
1226.84
1231.04
1235.24
1239.23
1243.13
1246.87
1250.5
1253.98
1257.33
1260.54
1263.62
1266.55
1269.36
1272.02
1274.55
1276.94
1279.19
1281.31
1283.29
1285.15
1286.88
1288.48
1289.96
1291.32
1292.56
1293.67
1294.66
1295.53
1296.26
1296.85
1297.26
1297.61
1297.73
1297.89
1297.77
1297.73
1297.17
1296.61
1295.82
1294.94
1293.96
1292.89
1291.75
1290.53
1289.23
1287.87
1286.43
1284.93
1283.37
1281.75
1280.07
1278.33
1276.55
1274.73
1272.88
1271.01
1269.1
1267.18
1265.23
1263.27
1261.3
1259.32
1257.32
1255.32
1253.31
1251.3
1249.29
1247.29
1245.29
1243.31
1241.35
1239.44
1237.59
1235.86
1234.31
1233.03
1232.18
1232.27
1233.65
1243.77
11463.2
2025.01
957.341
911.403
874.218
760.671
651.844
550.37
466.97
403.819
356.112
318.78
289.387
266.559
248.965
235.419
225.11
217.514
212.23
209.164
209.306
210.923
216.712
226.856
244.141
268.348
300.062
335.512
371.042
400.308
421.213
424.371
415.743
391.521
382.515
412.693
492.937
561.711
615.367
677.841
764.338
889.888
1023.63
1111.65
1182.37
1243.48
1273.38
1268.37
1204.24
1169.73
1113.69
1068.49
1025.43
989.693
959.674
935.826
916.815
903.613
893.85
884.839
880.492
876.847
875.354
873.185
873.568
874.037
875.566
877.444
879.759
882.366
885.212
888.268
891.474
894.816
898.256
901.783
905.37
909.008
912.679
916.376
920.084
923.797
927.504
931.2
934.877
938.527
942.145
945.726
949.266
952.771
956.239
959.667
963.058
966.418
969.753
973.071
976.378
979.683
982.986
986.286
989.571
992.815
995.974
999.019
1001.97
1004.82
1007.56
1010.2
1012.73
1015.16
1017.48
1019.69
1021.79
1023.79
1025.67
1027.44
1029.1
1030.64
1032.08
1033.41
1034.63
1035.74
1036.74
1037.63
1038.42
1039.09
1039.65
1040.1
1040.44
1040.65
1040.75
1040.77
1040.64
1040.46
1040.11
1039.73
1039.12
1038.43
1037.61
1036.72
1035.74
1034.68
1033.56
1032.37
1031.11
1029.79
1028.41
1026.96
1025.46
1023.91
1022.3
1020.65
1018.95
1017.22
1015.45
1013.65
1011.81
1009.95
1008.07
1006.15
1004.22
1002.26
1000.28
998.289
996.279
994.256
992.222
990.181
988.135
986.093
984.064
982.061
980.111
978.253
976.541
975.069
973.978
973.719
974.735
980.795
11463.2
2237.29
1379.75
1152.71
929.686
731.239
568.947
455.713
378.165
323.702
284.638
256.221
235.609
220.234
208.385
199.192
192.067
186.686
182.85
180.432
179.865
180.451
182.932
187.292
195.299
207.445
224.924
246.935
271.158
294.7
313.662
325.673
351.228
395.553
491.141
581.214
647.742
712.555
785.636
861.184
930.147
989.288
1040.23
1079.14
1093.45
1079.23
1027.21
993.111
946.402
912.855
876.486
849.026
824.459
805.012
789.31
777.368
768.43
762.282
757.976
754.888
753.698
753.138
753.401
754.176
755.856
757.82
760.225
762.878
765.764
768.826
772.035
775.368
778.801
782.319
785.906
789.548
793.235
796.956
800.702
804.464
808.236
812.009
815.777
819.535
823.276
826.996
830.69
834.353
837.983
841.584
845.154
848.69
852.191
855.658
859.093
862.496
865.868
869.203
872.498
875.741
878.921
882.026
885.044
887.968
890.801
893.54
896.182
898.728
901.173
903.519
905.762
907.901
909.933
911.857
913.672
915.377
916.972
918.455
919.825
921.083
922.228
923.26
924.178
924.981
925.67
926.241
926.696
927.031
927.248
927.342
927.34
927.249
927.013
926.68
926.227
925.678
924.985
924.193
923.298
922.312
921.238
920.083
918.85
917.542
916.163
914.715
913.201
911.622
909.982
908.282
906.526
904.718
902.864
900.968
899.032
897.057
895.048
893.004
890.93
888.826
886.694
884.536
882.355
880.154
877.936
875.701
873.453
871.194
868.927
866.661
864.404
862.176
859.992
857.885
855.903
854.121
852.654
851.846
852.107
855.108
11463.2
2792.29
1684.35
1197.21
844.729
600.003
453.913
361.602
302.736
264.494
238.403
219.648
205.505
194.556
185.859
178.874
173.323
169.102
166.099
164.325
163.986
164.629
166.578
170.297
176.017
184.235
196.487
213.2
234.148
260.142
297.872
351.339
433.305
537.825
628.294
695.237
757.294
812.936
857.272
893.81
927.307
952.485
960.181
939.905
906.522
876.505
840.171
811.286
781.702
758.997
737.965
721.62
707.821
697.127
688.928
683.043
679.029
676.737
675.734
675.46
676.16
677.48
679.375
681.688
684.437
687.438
690.683
694.105
697.676
701.37
705.167
709.051
713.008
717.028
721.1
725.216
729.364
733.538
737.73
741.931
746.136
750.337
754.529
758.707
762.865
766.999
771.103
775.174
779.208
783.208
787.171
791.093
794.972
798.807
802.596
806.337
810.027
813.662
817.235
820.735
824.157
827.495
830.744
833.9
836.963
839.928
842.795
845.56
848.221
850.775
853.221
855.556
857.778
859.883
861.87
863.736
865.481
867.101
868.597
869.966
871.209
872.323
873.309
874.166
874.891
875.485
875.947
876.276
876.467
876.528
876.513
876.342
876.037
875.613
875.064
874.398
873.603
872.693
871.673
870.549
869.326
868.007
866.597
865.1
863.519
861.859
860.125
858.316
856.438
854.492
852.483
850.417
848.298
846.131
843.919
841.663
839.367
837.032
834.664
832.263
829.832
827.374
824.892
822.39
819.87
817.333
814.783
812.22
809.65
807.078
804.513
801.971
799.468
797.032
794.702
792.539
790.631
789.218
788.587
789.546
11463.2
3339.33
1756.5
1056.05
669.424
468.085
361.247
302.483
265.736
240.234
221.294
206.511
194.642
184.914
176.822
170.147
164.781
160.688
157.903
156.481
156.54
157.734
160.635
165.529
172.982
184.038
198.765
219.988
252.161
301.552
378.682
481.025
573.632
642.802
702.967
752.231
789.165
818.183
843.701
856.057
858.356
839.18
815.069
790.682
764.389
739.96
715.867
695.795
677.674
663.143
650.671
640.866
633.072
627.303
623.269
620.947
619.989
619.87
620.772
622.348
624.552
627.257
630.383
633.833
637.564
641.5
645.61
649.858
654.222
658.683
663.227
667.842
672.518
677.247
682.018
686.825
691.658
696.51
701.372
706.236
711.096
715.945
720.777
725.587
730.369
735.118
739.83
744.501
749.125
753.703
758.232
762.71
767.13
771.494
775.796
780.035
784.208
788.31
792.338
796.288
800.158
803.935
807.617
811.198
814.677
818.049
821.313
824.462
827.496
830.407
833.191
835.843
838.364
840.752
843.005
845.12
847.095
848.927
850.616
852.159
853.555
854.804
855.905
856.857
857.658
858.31
858.809
859.158
859.345
859.403
859.354
859.132
858.761
858.252
857.604
856.823
855.905
854.858
853.688
852.398
850.994
849.481
847.862
846.142
844.324
842.407
840.39
838.287
836.104
833.846
831.516
829.121
826.667
824.159
821.6
818.994
816.342
813.65
810.92
808.157
805.363
802.542
799.696
796.831
793.948
791.05
788.138
785.214
782.283
779.351
776.426
773.522
770.653
767.844
765.126
762.547
760.173
758.172
756.684
756.106
11463.2
3528.7
1591.45
839.512
526.297
384.407
312.108
270.296
243.586
225.162
211.171
199.72
189.785
181.076
173.56
167.271
162.289
158.826
156.957
156.683
157.764
160.492
165.429
173.128
185.235
204.223
232.701
276.432
345.191
431.313
513.734
579.021
634.891
682.525
720.372
750.011
771.701
780.581
778.318
762.324
744.355
724.232
704.288
685.025
666.161
648.762
632.94
619.6
608.177
598.921
591.394
585.646
581.454
578.807
577.615
577.379
578.171
579.782
582.121
585.055
588.491
592.343
596.54
601.013
605.715
610.6
615.636
620.797
626.065
631.422
636.856
642.355
647.909
653.51
659.147
664.814
670.503
676.203
681.903
687.597
693.276
698.933
704.562
710.156
715.71
721.219
726.678
732.084
737.43
742.714
747.934
753.086
758.166
763.171
768.099
772.948
777.712
782.391
786.981
791.483
795.886
800.181
804.365
808.432
812.38
816.205
819.903
823.47
826.903
830.196
833.347
836.351
839.205
841.907
844.452
846.838
849.062
851.122
853.015
854.741
856.296
857.682
858.895
859.937
860.807
861.503
862.024
862.371
862.533
862.565
862.444
862.136
861.66
861.025
860.233
859.288
858.192
856.95
855.568
854.049
852.4
850.625
848.73
846.719
844.598
842.371
840.046
837.627
835.118
832.526
829.855
827.111
824.302
821.434
818.51
815.534
812.51
809.443
806.337
803.196
800.024
796.824
793.6
790.356
787.096
783.82
780.531
777.232
773.928
770.623
767.327
764.052
760.811
757.624
754.517
751.527
748.704
746.158
743.919
742.08
11463.2
3429.6
1318.14
675.005
445.123
345.773
292.764
260.448
238.959
222.772
209.975
199.397
190.396
182.666
176.098
170.827
167.07
164.997
164.75
166.673
170.785
177.986
189.598
206.891
233.726
275.669
333.172
400.643
464.369
521.513
571.495
614.418
650.318
680.722
704.24
713.939
712.918
700.473
686.68
670.389
654.71
639.424
624.877
610.942
597.714
585.716
575.191
566.358
559.047
553.256
548.858
545.805
544.198
543.686
544.118
545.504
547.721
550.659
554.222
558.316
562.862
567.789
573.035
578.547
584.277
590.19
596.255
602.449
608.754
615.153
621.628
628.167
634.757
641.385
648.041
654.716
661.411
668.103
674.785
681.446
688.077
694.672
701.222
707.723
714.167
720.546
726.851
733.073
739.22
745.291
751.284
757.195
763.019
768.754
774.397
779.943
785.391
790.734
795.969
801.088
806.086
810.96
815.703
820.314
824.785
829.115
833.297
837.329
841.205
844.92
848.47
851.852
855.059
858.089
860.939
863.605
866.083
868.372
870.468
872.369
874.075
875.584
876.895
878.008
878.924
879.64
880.157
880.465
880.584
880.553
880.313
879.877
879.254
878.447
877.464
876.306
874.98
873.488
871.837
870.032
868.079
865.984
863.753
861.392
858.908
856.306
853.594
850.777
847.862
844.855
841.762
838.589
835.346
832.038
828.67
825.247
821.775
818.257
814.702
811.111
807.489
803.84
800.167
796.475
792.768
789.046
785.313
781.571
777.827
774.086
770.355
766.645
762.969
759.344
755.791
752.339
749.023
745.941
743.072
740.245
11463.2
3040.11
1064.34
566.577
397.415
321.532
281.167
256.064
238.377
225.513
215.285
206.662
199.228
192.985
188.088
185.036
184.123
185.756
190.115
197.948
209.786
227.632
253.399
288.654
332.515
380.242
428.987
475.307
516.973
554.272
586.368
614.256
639.162
651.793
654.019
647.092
637.308
624.49
612.061
599.918
588.628
577.851
567.517
557.636
548.432
540.224
533.186
527.395
522.819
519.443
517.32
516.427
516.386
517.401
519.287
522.007
525.474
529.604
534.318
539.541
545.207
551.255
557.633
564.289
571.177
578.26
585.507
592.893
600.405
608.025
615.721
623.475
631.272
639.093
646.919
654.723
662.468
670.198
677.912
685.598
693.245
700.845
708.391
715.875
723.293
730.638
737.907
745.097
752.187
759.173
766.051
772.82
779.474
786.013
792.432
798.729
804.898
810.938
816.843
822.609
828.233
833.71
839.036
844.206
849.214
854.057
858.729
863.227
867.544
871.675
875.615
879.359
882.903
886.241
889.372
892.29
894.993
897.477
899.74
901.78
903.595
905.184
906.547
907.684
908.596
909.281
909.738
909.958
909.987
909.809
909.403
908.779
907.944
906.904
905.664
904.229
902.604
900.795
898.807
896.647
894.322
891.838
889.203
886.424
883.508
880.463
877.297
874.017
870.631
867.145
863.567
859.903
856.164
852.355
848.484
844.556
840.578
836.555
832.495
828.402
824.279
820.13
815.958
811.769
807.566
803.35
799.126
794.897
790.668
786.447
782.239
778.054
773.904
769.802
765.766
761.819
757.987
754.339
750.844
747.099
11463.2
2569.13
894.705
514.967
379.647
316.035
280.829
259.861
246.039
235.94
227.977
221.532
216.49
213.344
212.393
214.165
219.396
227.752
238.789
253.924
274.734
301.385
332.973
367.836
403.785
439.001
472.558
503.639
531.125
555.825
578.752
593.723
598.748
597.291
591.9
583.281
573.964
564.533
555.83
547.637
539.88
532.357
525.069
518.14
511.804
506.277
501.701
498.136
495.596
494.24
493.847
494.39
495.859
498.231
501.443
505.441
510.16
515.527
521.474
527.936
534.852
542.173
549.87
557.877
566.138
574.614
583.263
592.041
600.878
609.754
618.709
627.732
636.803
645.899
654.994
664.076
673.15
682.183
691.172
700.101
708.953
717.723
726.406
734.998
743.493
751.883
760.159
768.306
776.32
784.2
791.943
799.549
807.016
814.34
821.517
828.546
835.421
842.141
848.702
855.099
861.331
867.39
873.273
878.972
884.485
889.803
894.924
899.842
904.553
909.049
913.325
917.375
921.194
924.778
928.124
931.227
934.084
936.692
939.049
941.152
942.999
944.591
945.927
947.008
947.835
948.409
948.72
948.791
948.63
948.22
947.565
946.671
945.541
944.185
942.605
940.81
938.804
936.594
934.187
931.591
928.812
925.86
922.742
919.466
916.043
912.48
908.786
904.97
901.041
897.006
892.874
888.653
884.351
879.977
875.539
871.044
866.501
861.916
857.296
852.646
847.969
843.269
838.548
833.812
829.064
824.308
819.546
814.784
810.028
805.284
800.558
795.859
791.195
786.579
782.025
777.551
773.177
768.958
764.86
760.278
11463.2
2118.09
779.154
476.748
366.146
313.799
285.998
269.571
258.953
251.579
246.3
242.916
241.608
242.375
246.214
253.317
263.428
276.081
291.908
311.243
333.653
358.389
384.492
410.96
436.885
461.599
484.24
505.315
525.286
540.719
547.895
549.586
548.43
544.142
538.318
531.806
525.473
519.468
513.858
508.462
503.193
498.003
492.987
488.303
484.16
480.724
478.111
476.474
475.839
476.037
477.198
479.262
482.213
486.023
490.654
496.081
502.267
509.113
516.552
524.524
532.96
541.777
550.839
560.193
569.848
579.774
589.932
600.285
610.814
621.487
632.233
643.012
653.798
664.564
675.257
685.854
696.344
706.706
716.925
727.01
736.974
746.82
756.552
766.17
775.668
785.036
794.26
803.325
812.223
820.953
829.515
837.909
846.132
854.184
862.059
869.754
877.267
884.594
891.734
898.684
905.439
911.994
918.343
924.48
930.399
936.095
941.563
946.798
951.794
956.546
961.047
965.29
969.271
972.986
976.429
979.598
982.491
985.103
987.434
989.48
991.24
992.714
993.904
994.809
995.435
995.777
995.846
995.64
995.165
994.42
993.407
992.133
990.603
988.823
986.8
984.541
982.053
979.343
976.42
973.291
969.966
966.453
962.763
958.904
954.886
950.721
946.416
941.984
937.433
932.774
928.013
923.161
918.228
913.219
908.146
903.021
897.851
892.644
887.407
882.145
876.86
871.556
866.236
860.903
855.561
850.215
844.87
839.533
834.208
828.901
823.618
818.365
813.15
807.984
802.877
797.847
792.907
788.104
783.416
778.055
11463.2
1946.41
760.959
473.461
368.194
320.927
296.753
283.235
275.196
270.374
268.061
267.538
269.191
273.466
280.428
289.937
301.743
315.773
331.784
349.451
368.4
388.078
407.783
426.853
444.867
462.227
479.169
493.274
501.851
505.629
506.708
506.203
503.866
500.455
496.662
492.837
489.185
485.677
482.27
478.884
475.532
472.262
469.21
466.525
464.379
462.966
462.411
462.626
463.822
465.948
468.969
472.861
477.608
483.177
489.51
496.49
504.061
512.322
521.25
530.795
540.898
551.511
562.624
574.159
586.052
598.254
610.717
623.377
636.183
649.1
661.999
674.803
687.442
699.862
712.054
724.005
735.711
747.172
758.405
769.442
780.318
791.045
801.637
812.104
822.442
832.633
842.651
852.474
862.096
871.514
880.732
889.748
898.564
907.174
915.577
923.768
931.743
939.503
947.045
954.367
961.464
968.334
974.967
981.358
987.5
993.389
999.018
1004.38
1009.48
1014.3
1018.84
1023.09
1027.05
1030.71
1034.07
1037.12
1039.86
1042.3
1044.43
1046.24
1047.74
1048.93
1049.8
1050.36
1050.63
1050.58
1050.25
1049.61
1048.67
1047.45
1045.94
1044.15
1042.08
1039.75
1037.16
1034.31
1031.22
1027.89
1024.34
1020.57
1016.59
1012.41
1008.05
1003.51
998.801
993.939
988.935
983.798
978.541
973.173
967.705
962.146
956.507
950.79
945.015
939.194
933.336
927.448
921.536
915.604
909.658
903.697
897.726
891.746
885.761
879.78
873.809
867.854
861.92
856.012
850.135
844.292
838.489
832.738
827.047
821.433
815.904
810.502
805.23
799.127
11463.2
1879.34
733.146
468.296
373.496
330.985
309.801
298.478
292.405
289.623
288.902
290.248
293.959
299.865
307.788
317.479
328.685
341.198
354.762
369.059
383.654
398.151
412.312
426.321
440.044
451.874
460.121
465.599
468.758
470.184
470.569
470.209
469.08
467.629
466.094
464.564
463.075
461.599
460.144
458.732
457.479
456.577
455.963
455.776
456.14
457.168
458.926
461.379
464.471
468.189
472.79
478.321
484.788
492.174
500.451
509.621
519.694
530.597
542.29
554.698
567.753
581.392
595.562
610.167
625.117
640.344
655.817
671.361
686.841
702.116
717.131
731.811
746.087
759.913
773.273
786.164
798.595
810.585
822.213
833.579
844.799
855.87
866.815
877.671
888.433
899.061
909.497
919.698
929.672
939.419
948.937
958.226
967.284
976.109
984.695
993.04
1001.14
1009
1016.61
1023.98
1031.09
1037.95
1044.55
1050.88
1056.94
1062.72
1068.2
1073.4
1078.3
1082.9
1087.19
1091.17
1094.83
1098.16
1101.16
1103.83
1106.17
1108.17
1109.85
1111.18
1112.18
1112.84
1113.18
1113.17
1112.87
1112.23
1111.28
1110.01
1108.43
1106.54
1104.36
1101.88
1099.12
1096.08
1092.76
1089.18
1085.35
1081.27
1076.96
1072.42
1067.67
1062.71
1057.56
1052.23
1046.73
1041.08
1035.28
1029.34
1023.29
1017.13
1010.87
1004.52
998.103
991.607
985.064
978.485
971.879
965.25
958.606
951.949
945.285
938.614
931.942
925.267
918.593
911.934
905.297
898.686
892.106
885.561
879.054
872.588
866.164
859.796
853.494
847.27
841.132
835.107
829.246
822.432
11463.2
1838.88
728.988
473.274
383.236
343.527
323.981
313.596
308.269
306.064
305.706
307.747
312.009
318.015
325.407
333.914
343.332
353.468
364.079
374.928
385.827
396.938
407.683
416.89
424.237
430.066
434.818
438.39
440.982
442.924
444.511
445.93
447.339
448.756
450.124
451.456
452.768
454.054
455.333
456.593
457.806
458.762
460.052
461.885
464.443
467.758
471.866
476.797
482.64
489.499
497.35
506.244
516.207
527.24
539.306
552.398
566.5
581.598
597.662
614.492
631.952
649.925
668.291
686.918
705.67
724.392
742.894
761.107
778.916
796.183
812.799
828.654
843.663
857.833
871.211
883.836
895.73
906.873
917.486
927.81
938.259
948.617
958.913
969.276
979.679
990.018
1000.21
1010.22
1020
1029.53
1038.8
1047.82
1056.59
1065.1
1073.34
1081.32
1089.03
1096.46
1103.64
1110.54
1117.18
1123.55
1129.65
1135.45
1140.97
1146.19
1151.1
1155.69
1159.98
1163.94
1167.59
1170.89
1173.86
1176.49
1178.76
1180.68
1182.26
1183.49
1184.38
1184.9
1185.07
1184.9
1184.4
1183.54
1182.36
1180.84
1179
1176.84
1174.36
1171.58
1168.49
1165.1
1161.42
1157.45
1153.21
1148.71
1143.95
1138.95
1133.7
1128.24
1122.56
1116.67
1110.59
1104.33
1097.91
1091.33
1084.6
1077.75
1070.78
1063.71
1056.55
1049.31
1042.01
1034.68
1027.31
1019.92
1012.51
1005.09
997.655
990.219
982.783
975.353
967.93
960.515
953.112
945.74
938.403
931.103
923.843
916.629
909.461
902.34
895.264
888.247
881.302
874.442
867.671
861.007
854.552
847.057
11463.7
1812.49
726.505
480.871
393.646
355.097
336.351
326.075
320.513
318.133
317.66
319.488
323.326
328.508
334.685
341.614
349.169
357.211
365.638
374.247
382.438
390.155
397.245
404.027
410.241
415.977
421.325
426.368
431.17
435.853
440.379
444.7
448.585
452.325
456.169
460.151
464.294
468.592
473.075
477.738
482.657
487.985
493.756
500.127
507.298
515.123
523.683
533.027
543.282
554.548
566.863
580.298
594.959
610.94
628.038
646.163
665.216
685.049
705.49
726.476
747.865
769.497
791.203
812.825
834.201
855.18
875.612
895.387
914.396
932.538
949.707
965.8
980.614
994.306
1007.07
1018.99
1030.14
1040.56
1050.31
1059.51
1068.38
1076.93
1085.43
1094.36
1103.59
1112.83
1121.96
1130.92
1139.63
1148.07
1156.23
1164.11
1171.72
1179.05
1186.1
1192.86
1199.33
1205.53
1211.45
1217.11
1222.5
1227.63
1232.49
1237.06
1241.34
1245.32
1248.99
1252.35
1255.4
1258.14
1260.55
1262.63
1264.37
1265.76
1266.8
1267.48
1267.82
1267.81
1267.5
1266.8
1265.75
1264.36
1262.64
1260.58
1258.19
1255.48
1252.45
1249.12
1245.48
1241.54
1237.3
1232.78
1227.98
1222.89
1217.55
1211.95
1206.11
1200.03
1193.72
1187.19
1180.46
1173.54
1166.43
1159.14
1151.7
1144.11
1136.39
1128.54
1120.59
1112.55
1104.42
1096.22
1087.97
1079.71
1071.43
1063.13
1054.82
1046.5
1038.18
1029.87
1021.57
1013.28
1005.02
996.793
988.621
980.497
972.42
964.389
956.405
948.471
940.591
932.767
924.995
917.293
909.675
902.151
894.724
887.4
880.335
872.184
11462.8
1796.52
729.153
487.193
401.424
363.457
344.982
334.423
328.64
326.128
325.58
327.199
330.604
335.249
340.936
347.369
354.404
361.817
369.473
377.236
385.131
392.896
400.52
407.973
415.232
422.436
429.671
437.08
444.768
452.885
461.311
470.161
479.623
489.7
500.377
511.635
523.443
535.723
548.397
561.337
574.511
587.874
601.317
614.714
627.976
641.326
654.939
668.909
683.392
698.517
714.432
731.325
749.272
768.005
787.669
808.248
829.666
851.779
874.393
897.316
920.342
943.267
965.89
988.042
1009.57
1030.31
1050.16
1069.02
1086.85
1103.58
1119.22
1133.75
1147.21
1159.51
1170.96
1181.66
1191.69
1201.09
1209.82
1217.9
1225.13
1231.98
1238.84
1246.06
1253.27
1260.29
1267.07
1273.59
1279.84
1285.81
1291.51
1296.96
1302.16
1307.1
1311.78
1316.21
1320.38
1324.31
1328.01
1331.49
1334.76
1337.8
1340.61
1343.17
1345.48
1347.56
1349.34
1350.83
1352.06
1353.01
1353.67
1354.04
1354.1
1353.87
1353.25
1352.35
1351.14
1349.62
1347.8
1345.66
1343.19
1340.42
1337.34
1333.95
1330.27
1326.3
1322.05
1317.52
1312.71
1307.63
1302.28
1296.67
1290.81
1284.69
1278.34
1271.75
1264.94
1257.91
1250.67
1243.23
1235.6
1227.79
1219.81
1211.68
1203.39
1194.97
1186.43
1177.77
1169.02
1160.18
1151.26
1142.28
1133.23
1124.15
1115.04
1105.91
1096.76
1087.61
1078.46
1069.32
1060.2
1051.09
1042.02
1032.99
1024.03
1015.13
1006.27
997.466
988.716
980.022
971.392
962.829
954.354
945.973
937.686
929.504
921.428
913.456
905.787
897.041
11461.8
1785.04
732.508
490.268
406.951
369.926
352.334
342.228
337.41
335.711
335.92
338.37
342.482
347.813
354.148
361.594
370.088
378.59
387.319
396.415
406.085
416.295
427.096
438.116
449.696
462.043
475.31
489.704
505.371
522.447
541.141
561.568
583.727
607.401
632.409
658.543
685.598
713.277
741.176
768.665
795.365
820.948
845.088
867.553
888.221
907.197
924.732
941.506
957.832
973.808
989.718
1005.73
1021.89
1038.57
1055.9
1073.96
1092.69
1111.98
1131.61
1151.37
1171.05
1190.4
1209.18
1227.26
1244.44
1260.62
1275.66
1289.51
1302.15
1313.57
1323.83
1333.05
1341.65
1349.76
1357.24
1364.03
1370.17
1375.45
1380.23
1384.7
1388.99
1393.52
1398.23
1402.52
1406.23
1409.56
1412.6
1415.42
1418.05
1420.49
1422.76
1424.84
1426.74
1428.46
1430
1431.37
1432.6
1433.67
1434.62
1435.43
1436.11
1436.63
1436.99
1437.18
1437.2
1437.09
1436.71
1436.08
1435.28
1434.26
1433.01
1431.53
1429.78
1427.78
1425.51