/*--------------------------------*- C++ -*----------------------------------*\
  =========                 |
  \\      /  F ield         | OpenFOAM: The Open Source CFD Toolbox
   \\    /   O peration     | Website:  https://openfoam.org
    \\  /    A nd           | Version:  13
     \\/     M anipulation  |
\*---------------------------------------------------------------------------*/
FoamFile
{
    format      ascii;
    class       volScalarField;
    location    "1200";
    object      p;
}
// * * * * * * * * * * * * * * * * * * * * * * * * * * * * * * * * * * * * * //

dimensions      [0 2 -2 0 0 0 0];

internalField   nonuniform List<scalar> 
12225
(
-4.35262
-5.23392
-5.61811
-5.74258
-5.8716
-6.01452
-6.13667
-6.2372
-6.32559
-6.39764
-6.46434
-6.55413
-6.64521
-6.71681
-6.77707
-6.84145
-6.92131
-7.02755
-4.62585
-5.26161
-5.58574
-5.70794
-5.83525
-5.97785
-6.10035
-6.20308
-6.29239
-6.36311
-6.43641
-6.52217
-6.60928
-6.68645
-6.75181
-6.81936
-6.88988
-6.94891
-4.84598
-5.27021
-5.57717
-5.72105
-5.84968
-5.988
-6.10847
-6.20789
-6.29127
-6.36543
-6.44348
-6.52213
-6.60087
-6.67447
-6.74115
-6.80655
-6.86893
-6.92098
-4.9843
-5.29208
-5.58408
-5.73615
-5.85748
-5.98594
-6.10159
-6.1982
-6.28154
-6.35856
-6.43489
-6.50918
-6.58424
-6.65703
-6.72452
-6.78818
-6.84741
-6.89743
-5.09428
-5.33392
-5.59697
-5.7488
-5.86548
-5.987
-6.09943
-6.19506
-6.27864
-6.3556
-6.42991
-6.50263
-6.57553
-6.64635
-6.71219
-6.77295
-6.82832
-6.87478
-5.1957
-5.38268
-5.60927
-5.75918
-5.87404
-5.9899
-6.0986
-6.19271
-6.27541
-6.35142
-6.42444
-6.49581
-6.5661
-6.63382
-6.69682
-6.75441
-6.80619
-6.85016
-5.28989
-5.43075
-5.62565
-5.77084
-5.88283
-5.99276
-6.0974
-6.18993
-6.27176
-6.34702
-6.41903
-6.48889
-6.55673
-6.62158
-6.68188
-6.73681
-6.78601
-6.82849
-5.3754
-5.48051
-5.64773
-5.78414
-5.89182
-5.99602
-6.0966
-6.18716
-6.26783
-6.34218
-6.413
-6.48118
-6.54671
-6.60884
-6.66647
-6.71895
-6.76606
-6.80724
-5.4524
-5.5319
-5.67251
-5.79837
-5.90155
-6.00045
-6.0966
-6.18456
-6.26377
-6.33701
-6.40648
-6.47288
-6.53616
-6.59572
-6.6509
-6.70123
-6.74658
-6.78662
-5.52161
-5.58268
-5.69939
-5.81421
-5.91255
-6.00611
-6.0974
-6.1823
-6.25975
-6.33161
-6.39953
-6.46405
-6.52507
-6.58226
-6.63521
-6.6836
-6.72737
-6.76627
-5.58388
-5.63146
-5.72824
-5.83178
-5.92453
-6.01271
-6.09903
-6.18056
-6.2559
-6.32604
-6.39219
-6.45475
-6.51366
-6.56869
-6.61959
-6.66618
-6.70848
-6.74637
-5.63529
-5.67369
-5.7555
-5.84884
-5.936
-6.01935
-6.1012
-6.17945
-6.25253
-6.32085
-6.38522
-6.44599
-6.50305
-6.55625
-6.60545
-6.65053
-6.69159
-6.72848
-5.6813
-5.71301
-5.78244
-5.86613
-5.94759
-6.02628
-6.10381
-6.17868
-6.24933
-6.31569
-6.37825
-6.43722
-6.49252
-6.54403
-6.59164
-6.63533
-6.67517
-6.71116
-5.72802
-5.75413
-5.81216
-5.88583
-5.96078
-6.03432
-6.10712
-6.17812
-6.24584
-6.30985
-6.37026
-6.42721
-6.48057
-6.53024
-6.57618
-6.61837
-6.65699
-6.69193
-5.77358
-5.79504
-5.84317
-5.9071
-5.97505
-6.04309
-6.11095
-6.17772
-6.2421
-6.30334
-6.36135
-6.41601
-6.46728
-6.51501
-6.55923
-6.59991
-6.63724
-6.67119
-5.81523
-5.83294
-5.87304
-5.92824
-5.98924
-6.05176
-6.1147
-6.17718
-6.23796
-6.29624
-6.35159
-6.4039
-6.45297
-6.49877
-6.54124
-6.58047
-6.61653
-6.64954
-5.84895
-5.86389
-5.89798
-5.94621
-6.00116
-6.05866
-6.11718
-6.17568
-6.23305
-6.28838
-6.34117
-6.39114
-6.43814
-6.48208
-6.52295
-6.56079
-6.59572
-6.62781
-5.86869
-5.88192
-5.91238
-5.95621
-6.00707
-6.06102
-6.11632
-6.17187
-6.22659
-6.27957
-6.33026
-6.37832
-6.42359
-6.46597
-6.50548
-6.54216
-6.57614
-6.60748
-5.86465
-5.87763
-5.90763
-5.95086
-6.00103
-6.05418
-6.1086
-6.16324
-6.21704
-6.26908
-6.31881
-6.36588
-6.41017
-6.45161
-6.49026
-6.52618
-6.55953
-6.59043
-5.82904
-5.84406
-5.87831
-5.92648
-5.98089
-6.03719
-6.09423
-6.15099
-6.20657
-6.25984
-6.31045
-6.35797
-6.40252
-6.44394
-6.48251
-6.5182
-6.55134
-6.58199
-5.77953
-5.79794
-5.83937
-5.89577
-5.95673
-6.01807
-6.07921
-6.13973
-6.19821
-6.2538
-6.30594
-6.35465
-6.39984
-6.44176
-6.48048
-6.51634
-6.54938
-6.58002
-5.71663
-5.74055
-5.79336
-5.86128
-5.93045
-5.99766
-6.06423
-6.12951
-6.19188
-6.25029
-6.30448
-6.35454
-6.4006
-6.44297
-6.48191
-6.51781
-6.55087
-6.58147
-5.64216
-5.67425
-5.74358
-5.82588
-5.90327
-5.97661
-6.04923
-6.11995
-6.18652
-6.24799
-6.30451
-6.35624
-6.40347
-6.44642
-6.48563
-6.52128
-6.55386
-6.58348
-5.55555
-5.60191
-5.69393
-5.79166
-5.87682
-5.95642
-6.03578
-6.11198
-6.18238
-6.24659
-6.30526
-6.35881
-6.40765
-6.4522
-6.49282
-6.52982
-6.56334
-6.5938
-5.45722
-5.52793
-5.64682
-5.7593
-5.85088
-5.93859
-6.02588
-6.10757
-6.18078
-6.24605
-6.30495
-6.35837
-6.40675
-6.45121
-6.49249
-6.53094
-6.56656
-6.59897
-5.35058
-5.45115
-5.60743
-5.72908
-5.82482
-5.92452
-6.02342
-6.11366
-6.19113
-6.25819
-6.31726
-6.36911
-6.41482
-6.45596
-6.49447
-6.53133
-6.56636
-6.59961
-5.23527
-5.37672
-5.58123
-5.70147
-5.79314
-5.90098
-6.012
-6.11468
-6.2003
-6.27314
-6.33525
-6.38718
-6.43057
-6.46817
-6.5024
-6.53482
-6.56602
-6.59661
-5.10203
-5.3345
-5.58017
-5.69381
-5.77853
-5.8798
-5.99165
-6.10279
-6.20002
-6.284
-6.35382
-6.4094
-6.45378
-6.49098
-6.52366
-6.55332
-6.58081
-6.60907
-4.92155
-5.32845
-5.58084
-5.70443
-5.79762
-5.88322
-5.97777
-6.07995
-6.18488
-6.28032
-6.3571
-6.41552
-6.46088
-6.49845
-6.53078
-6.55879
-6.58375
-6.60633
-4.65069
-5.25883
-5.53837
-5.70032
-5.81807
-5.90759
-5.99405
-6.08889
-6.20139
-6.30651
-6.38838
-6.44788
-6.49294
-6.5296
-6.5602
-6.58531
-6.60645
-6.62286
-7.5036
-7.50367
-7.50371
-7.50374
-7.50357
-7.50261
-7.50033
-7.49706
-7.49377
-7.49137
-7.49092
-7.49279
-7.49663
-7.50174
-7.50739
-7.51287
-7.51763
-7.5212
-7.52341
-7.52445
-7.52463
-7.52413
-7.52319
-7.52206
-7.52102
-7.52023
-7.51974
-7.51944
-7.51919
-7.51883
-7.51832
-7.51765
-7.51684
-7.51581
-7.51447
-7.51287
-7.51123
-7.51008
-7.51008
-7.51143
-7.51369
-7.51609
-7.51811
-7.51977
-7.52141
-7.52338
-7.52609
-7.52948
-7.53278
-7.53537
-7.5384
-7.54502
-7.55968
-7.58345
-7.61511
-7.65416
-7.70162
-7.7579
-7.82168
-7.89108
-7.96404
-8.03867
-8.11272
-8.18456
-8.25335
-8.3186
-8.37939
-8.43568
-8.48723
-8.53416
-8.5764
-8.61415
-8.64734
-8.67619
-8.70061
-8.72078
-8.73656
-8.74807
-8.75519
-8.75801
-8.75638
-8.7504
-8.73992
-8.72504
-8.70556
-8.6815
-8.65262
-8.61889
-8.58016
-8.53645
-8.48784
-8.43421
-8.37542
-8.31133
-8.24182
-8.1668
-8.08621
-8.00005
-7.90837
-7.81119
-7.70829
-7.59925
-7.4838
-7.36196
-7.23377
-7.09924
-6.95835
-6.81111
-6.65756
-6.49773
-6.33167
-6.15945
-5.98117
-5.79688
-5.60672
-5.41076
-5.20922
-5.00231
-4.79026
-4.57319
-4.35126
-4.12463
-3.89362
-3.65849
-3.41958
-3.17711
-2.93141
-2.68268
-2.43128
-2.17744
-1.92155
-1.66382
-1.40467
-1.14433
-0.883206
-0.621559
-0.359806
-0.0980684
0.16347
0.424634
0.685134
0.944715
1.20308
1.45996
1.71512
1.96837
2.21953
2.46846
2.71502
2.95912
3.20065
3.43956
3.67577
3.90926
4.13997
4.3679
4.59303
4.81538
5.03497
5.25183
5.466
5.67752
5.88644
6.09278
6.29657
6.49782
6.69654
6.8927
7.08631
7.27731
7.46568
7.65133
7.83421
8.01421
8.19123
8.36518
8.53607
8.70371
8.87108
9.02879
-7.5047
-7.50487
-7.50524
-7.50568
-7.50576
-7.50508
-7.50329
-7.5008
-7.49878
-7.49822
-7.49952
-7.50266
-7.50719
-7.51254
-7.51807
-7.52327
-7.52775
-7.53127
-7.53362
-7.53461
-7.53423
-7.53269
-7.53037
-7.52768
-7.52506
-7.52284
-7.52118
-7.52002
-7.51916
-7.5184
-7.51768
-7.51703
-7.51638
-7.51564
-7.51467
-7.51344
-7.51232
-7.51196
-7.51287
-7.51494
-7.51744
-7.51937
-7.52027
-7.52048
-7.52018
-7.51915
-7.51838
-7.52018
-7.52605
-7.53253
-7.53842
-7.54713
-7.56033
-7.57933
-7.60738
-7.64754
-7.69979
-7.76172
-7.83065
-7.90409
-7.97959
-8.05475
-8.12797
-8.1988
-8.26604
-8.32869
-8.38691
-8.44069
-8.49
-8.53495
-8.57555
-8.6119
-8.64401
-8.67196
-8.69573
-8.71536
-8.7308
-8.74206
-8.74906
-8.75183
-8.75026
-8.74437
-8.73407
-8.71939
-8.7002
-8.67646
-8.64802
-8.61477
-8.5766
-8.53354
-8.48561
-8.43273
-8.37475
-8.31154
-8.24299
-8.16899
-8.08946
-8.00428
-7.91334
-7.81646
-7.71354
-7.60463
-7.48977
-7.36882
-7.24163
-7.10814
-6.96832
-6.82217
-6.66969
-6.51095
-6.34596
-6.17482
-5.99758
-5.81436
-5.62522
-5.43031
-5.22977
-5.02386
-4.81274
-4.59658
-4.37551
-4.14974
-3.91954
-3.68522
-3.44705
-3.2053
-2.96023
-2.71212
-2.46124
-2.2079
-1.95242
-1.69507
-1.43618
-1.17604
-0.914925
-0.653104
-0.390921
-0.128786
0.132965
0.39421
0.654778
0.914455
1.17294
1.42999
1.68534
1.93881
2.19021
2.4394
2.68623
2.93062
3.17245
3.41166
3.64819
3.88199
4.11302
4.34126
4.56671
4.78936
5.00925
5.22639
5.44084
5.65262
5.86178
6.06836
6.27238
6.47385
6.67279
6.86917
7.063
7.25422
7.44282
7.62873
7.8119
7.99225
8.16977
8.34434
8.51613
8.68452
8.85436
9.01141
-7.50593
-7.50593
-7.50599
-7.50611
-7.50621
-7.50618
-7.50619
-7.50676
-7.5084
-7.51132
-7.51541
-7.52037
-7.5258
-7.5313
-7.53647
-7.54102
-7.54472
-7.54741
-7.54903
-7.54951
-7.54882
-7.54703
-7.5443
-7.54079
-7.53673
-7.53236
-7.52796
-7.52381
-7.52013
-7.51708
-7.51469
-7.51284
-7.51128
-7.5098
-7.50846
-7.50762
-7.50786
-7.50969
-7.51306
-7.51685
-7.51943
-7.51947
-7.51739
-7.51505
-7.51417
-7.51443
-7.51497
-7.51807
-7.52611
-7.53838
-7.55493
-7.57671
-7.60397
-7.63727
-7.67751
-7.72527
-7.77983
-7.83962
-7.90298
-7.96844
-8.03463
-8.10031
-8.1645
-8.22669
-8.2863
-8.34274
-8.3958
-8.44533
-8.4912
-8.53335
-8.57174
-8.60633
-8.63706
-8.66394
-8.6869
-8.70591
-8.72092
-8.73188
-8.73872
-8.74142
-8.73989
-8.7341
-8.72398
-8.70952
-8.69062
-8.66722
-8.63921
-8.60646
-8.56886
-8.52643
-8.47917
-8.42699
-8.36975
-8.30733
-8.23964
-8.16657
-8.08803
-8.00391
-7.91409
-7.81838
-7.7167
-7.60901
-7.49535
-7.3756
-7.24966
-7.11744
-6.97892
-6.83409
-6.68294
-6.52553
-6.36187
-6.19205
-6.01612
-5.8342
-5.64635
-5.45272
-5.25346
-5.04878
-4.83885
-4.62384
-4.40387
-4.1792
-3.95006
-3.71678
-3.47958
-3.23877
-2.99456
-2.74728
-2.49715
-2.24454
-1.9897
-1.73297
-1.47462
-1.21498
-0.9543
-0.692907
-0.431115
-0.169318
0.0922198
0.353329
0.61383
0.873468
1.13196
1.38904
1.64447
1.89804
2.14959
2.39893
2.64595
2.89053
3.13257
3.37199
3.60874
3.84276
4.07403
4.3025
4.52817
4.75104
4.97113
5.18846
5.40308
5.615
5.82429
6.03097
6.23507
6.4366
6.63559
6.832
7.02584
7.21707
7.40568
7.59159
7.77478
7.95517
8.13271
8.30736
8.47955
8.64798
8.82029
8.97297
-7.50691
-7.50666
-7.50633
-7.50627
-7.50713
-7.50938
-7.51296
-7.51758
-7.52291
-7.52866
-7.53455
-7.54036
-7.54588
-7.55091
-7.55529
-7.55887
-7.56153
-7.56319
-7.56383
-7.56341
-7.56191
-7.55939
-7.55592
-7.55157
-7.54644
-7.54061
-7.53425
-7.52754
-7.52079
-7.51433
-7.50848
-7.50343
-7.49934
-7.49641
-7.49504
-7.49585
-7.49908
-7.50387
-7.50861
-7.51174
-7.51269
-7.51186
-7.51055
-7.51031
-7.51204
-7.51623
-7.52356
-7.53493
-7.55135
-7.5731
-7.59989
-7.63126
-7.66691
-7.70667
-7.75043
-7.7981
-7.84936
-7.90365
-7.96022
-8.01824
-8.07688
-8.13532
-8.19287
-8.24899
-8.30316
-8.35499
-8.40417
-8.45046
-8.49365
-8.53361
-8.57022
-8.60339
-8.633
-8.65899
-8.68128
-8.69979
-8.71445
-8.72518
-8.73191
-8.73457
-8.7331
-8.72744
-8.71752
-8.7033
-8.6847
-8.66166
-8.63408
-8.60183
-8.56481
-8.52302
-8.47644
-8.42498
-8.36851
-8.3069
-8.24005
-8.16786
-8.09024
-8.00707
-7.91824
-7.8236
-7.72307
-7.61658
-7.50409
-7.38552
-7.26076
-7.12975
-6.99246
-6.84886
-6.69896
-6.54278
-6.38037
-6.21177
-6.03706
-5.85633
-5.66968
-5.47723
-5.27914
-5.07559
-4.86675
-4.65277
-4.43381
-4.21013
-3.98198
-3.74964
-3.51334
-3.27338
-3.02997
-2.78344
-2.53402
-2.28206
-2.02782
-1.77165
-1.5138
-1.2546
-0.994326
-0.733304
-0.471846
-0.210307
0.0510699
0.312089
0.572553
0.832179
1.09069
1.34782
1.60333
1.857
2.10868
2.35818
2.60537
2.85013
3.09236
3.33198
3.56894
3.80316
4.03463
4.26329
4.48916
4.71221
4.93247
5.14996
5.3647
5.57674
5.78612
5.99287
6.19702
6.39859
6.59758
6.79399
6.9878
7.17898
7.36752
7.55337
7.73649
7.91682
8.09436
8.26903
8.44135
8.60941
8.78231
8.92863
-7.50889
-7.50837
-7.50795
-7.50895
-7.5125
-7.5182
-7.52507
-7.53237
-7.53961
-7.54649
-7.55286
-7.55863
-7.56377
-7.56819
-7.57181
-7.57456
-7.57636
-7.57715
-7.57691
-7.57561
-7.57324
-7.56983
-7.56542
-7.56004
-7.55378
-7.54666
-7.53876
-7.53019
-7.52114
-7.51194
-7.5031
-7.49518
-7.48892
-7.48517
-7.48474
-7.48746
-7.49177
-7.49617
-7.49989
-7.50255
-7.50429
-7.5058
-7.5083
-7.51295
-7.52078
-7.53268
-7.54911
-7.5698
-7.59432
-7.62249
-7.654
-7.6886
-7.72618
-7.76666
-7.80998
-7.85603
-7.90452
-7.95507
-8.00718
-8.0603
-8.11383
-8.16723
-8.21996
-8.2716
-8.3217
-8.36992
-8.41594
-8.45951
-8.50039
-8.53841
-8.57341
-8.60523
-8.63375
-8.65886
-8.68043
-8.69837
-8.71259
-8.72299
-8.72948
-8.73201
-8.73047
-8.72481
-8.71497
-8.70087
-8.68245
-8.65965
-8.63238
-8.60051
-8.56394
-8.52266
-8.47665
-8.42581
-8.37
-8.30909
-8.24299
-8.17159
-8.09479
-8.01248
-7.92454
-7.83086
-7.73133
-7.62588
-7.51441
-7.39683
-7.27308
-7.14308
-7.0068
-6.86422
-6.71534
-6.56016
-6.39875
-6.23112
-6.05739
-5.87759
-5.69187
-5.50033
-5.30315
-5.10045
-4.89244
-4.67922
-4.46105
-4.2381
-4.0107
-3.77903
-3.54343
-3.30406
-3.06127
-2.81526
-2.56639
-2.31487
-2.06109
-1.80528
-1.5478
-1.28889
-1.02891
-0.768117
-0.506886
-0.245473
0.0158325
0.276845
0.537307
0.796959
1.0555
1.31267
1.56824
1.822
2.07377
2.32338
2.57069
2.81558
3.05793
3.29769
3.53476
3.76912
4.0007
4.22949
4.45546
4.67861
4.89896
5.11652
5.33133
5.54342
5.75284
5.95961
6.16378
6.36535
6.56432
6.7607
6.95447
7.14562
7.33412
7.51992
7.703
7.88328
8.06078
8.23534
8.40751
8.57481
8.74725
8.88668
-7.51273
-7.51188
-7.51211
-7.51585
-7.52263
-7.5307
-7.53904
-7.54712
-7.55465
-7.56151
-7.56769
-7.57318
-7.57793
-7.58188
-7.58496
-7.58711
-7.58827
-7.5884
-7.58748
-7.58549
-7.58244
-7.57834
-7.5732
-7.56705
-7.55987
-7.55167
-7.5426
-7.53275
-7.52232
-7.51164
-7.5014
-7.49244
-7.48589
-7.48266
-7.4825
-7.48408
-7.48632
-7.48898
-7.49227
-7.49636
-7.50124
-7.50717
-7.51536
-7.52697
-7.54242
-7.56164
-7.58426
-7.61005
-7.6387
-7.66996
-7.70369
-7.73974
-7.77804
-7.8185
-7.86104
-7.90552
-7.95172
-7.99935
-8.04807
-8.09751
-8.14723
-8.19686
-8.24598
-8.29423
-8.34123
-8.38665
-8.4302
-8.4716
-8.51061
-8.54703
-8.58065
-8.61132
-8.63886
-8.66314
-8.68401
-8.70138
-8.71511
-8.72512
-8.73131
-8.73359
-8.7319
-8.72614
-8.71625
-8.70217
-8.68383
-8.66117
-8.63408
-8.60247
-8.56624
-8.52536
-8.47981
-8.42947
-8.3742
-8.31389
-8.24843
-8.17771
-8.10161
-8.02004
-7.93287
-7.83999
-7.7413
-7.63667
-7.52603
-7.40927
-7.28631
-7.15712
-7.02163
-6.87983
-6.73171
-6.5773
-6.41662
-6.24971
-6.07666
-5.89754
-5.71247
-5.52157
-5.32499
-5.12288
-4.91539
-4.70269
-4.485
-4.26255
-4.03561
-3.8044
-3.5692
-3.33023
-3.08779
-2.84212
-2.59354
-2.34231
-2.08877
-1.83319
-1.57588
-1.31713
-1.05727
-0.796612
-0.535465
-0.274092
-0.0127672
0.248291
0.508803
0.768501
1.02708
1.2843
1.53992
1.79374
2.04555
2.29523
2.54259
2.78753
3.02993
3.26972
3.50683
3.74122
3.97282
4.20161
4.42758
4.65072
4.87104
5.08857
5.30334
5.51539
5.72476
5.93147
6.13557
6.33706
6.53596
6.73226
6.92596
7.11702
7.30544
7.49116
7.67415
7.85433
8.03169
8.206
8.3778
8.5441
8.71592
8.8486
-7.51784
-7.51724
-7.51935
-7.52587
-7.53431
-7.54289
-7.55116
-7.55893
-7.56614
-7.57274
-7.57869
-7.58392
-7.58838
-7.59199
-7.59468
-7.59641
-7.59712
-7.5968
-7.59542
-7.59297
-7.58946
-7.58491
-7.57928
-7.57252
-7.56462
-7.55572
-7.54598
-7.53557
-7.52479
-7.51409
-7.50424
-7.49626
-7.49086
-7.48756
-7.4856
-7.48481
-7.48542
-7.48786
-7.49214
-7.49814
-7.5064
-7.51757
-7.53187
-7.54927
-7.56967
-7.59294
-7.61882
-7.6471
-7.67769
-7.71042
-7.74518
-7.78184
-7.82029
-7.86044
-7.9022
-7.94542
-7.98993
-8.03554
-8.08197
-8.12894
-8.17615
-8.22328
-8.26997
-8.31591
-8.36077
-8.40423
-8.44601
-8.48584
-8.52347
-8.55867
-8.59122
-8.62095
-8.64767
-8.67122
-8.69146
-8.70826
-8.7215
-8.73108
-8.7369
-8.73887
-8.73692
-8.73097
-8.72095
-8.70679
-8.68843
-8.6658
-8.6388
-8.60735
-8.57134
-8.53075
-8.48554
-8.4356
-8.38078
-8.32096
-8.25603
-8.18587
-8.11038
-8.02943
-7.94292
-7.8507
-7.75268
-7.64872
-7.53872
-7.42259
-7.30026
-7.17166
-7.03676
-6.89553
-6.74796
-6.59407
-6.43388
-6.26745
-6.09484
-5.91615
-5.73147
-5.54096
-5.34472
-5.14293
-4.93571
-4.7233
-4.50585
-4.28369
-4.05696
-3.826
-3.59096
-3.3522
-3.10989
-2.86439
-2.6159
-2.36481
-2.11133
-1.85584
-1.59856
-1.33986
-1.08001
-0.819374
-0.558199
-0.296789
-0.0353705
0.225769
0.486374
0.74613
1.00477
1.26203
1.51769
1.77152
2.02337
2.27303
2.5204
2.76531
3.00769
3.24743
3.4845
3.71882
3.95035
4.17904
4.4049
4.62792
4.84812
5.0655
5.28013
5.49203
5.70126
5.90783
6.11178
6.31313
6.51188
6.70804
6.90159
7.09252
7.28081
7.46641
7.64926
7.82929
8.00645
8.18042
8.35174
8.51699
8.68827
8.81463
-7.52224
-7.52268
-7.52726
-7.53514
-7.54351
-7.55159
-7.55932
-7.56669
-7.5736
-7.57998
-7.58573
-7.59078
-7.59502
-7.59841
-7.60087
-7.60235
-7.60282
-7.60224
-7.6006
-7.59791
-7.59417
-7.58936
-7.58337
-7.5762
-7.56806
-7.55913
-7.54951
-7.5394
-7.52924
-7.51976
-7.51172
-7.50534
-7.5
-7.49524
-7.4917
-7.49014
-7.4906
-7.49337
-7.49908
-7.50796
-7.5199
-7.53473
-7.55236
-7.57265
-7.59544
-7.62059
-7.64797
-7.67743
-7.70889
-7.74222
-7.77732
-7.81409
-7.85245
-7.89229
-7.93352
-7.97599
-8.01955
-8.06403
-8.10919
-8.15482
-8.20062
-8.24632
-8.29161
-8.3362
-8.37978
-8.42205
-8.46274
-8.50156
-8.53827
-8.57263
-8.60442
-8.63343
-8.65949
-8.68243
-8.7021
-8.71836
-8.7311
-8.74022
-8.74561
-8.74721
-8.74493
-8.7387
-8.72846
-8.71413
-8.69564
-8.67294
-8.64595
-8.61456
-8.57867
-8.53828
-8.49332
-8.44369
-8.38922
-8.32979
-8.26529
-8.19561
-8.12062
-8.0402
-7.95422
-7.86255
-7.76506
-7.66161
-7.55211
-7.43645
-7.31458
-7.18641
-7.05192
-6.91106
-6.76385
-6.61027
-6.45038
-6.2842
-6.11183
-5.93334
-5.74885
-5.5585
-5.36239
-5.16069
-4.95355
-4.7412
-4.52384
-4.30172
-4.07506
-3.84411
-3.60911
-3.37034
-3.12803
-2.8825
-2.634
-2.38287
-2.12936
-1.87381
-1.61647
-1.35771
-1.09779
-0.837069
-0.575796
-0.314259
-0.0527061
0.208562
0.469271
0.729108
0.987813
1.24511
1.50079
1.75463
2.00646
2.2561
2.50341
2.74825
2.99054
3.23017
3.46712
3.70131
3.93268
4.16119
4.38685
4.60965
4.82963
5.04679
5.26119
5.47286
5.68186
5.88822
6.09196
6.2931
6.49164
6.68759
6.88095
7.07171
7.25983
7.44527
7.62796
7.8078
7.9847
8.1583
8.32909
8.49331
8.66414
8.78477
-7.52407
-7.52599
-7.53233
-7.54021
-7.54797
-7.55553
-7.56289
-7.56999
-7.57671
-7.58296
-7.58862
-7.59359
-7.59776
-7.60107
-7.60346
-7.60487
-7.60526
-7.60463
-7.60297
-7.60025
-7.59648
-7.59157
-7.5855
-7.57843
-7.57059
-7.56211
-7.55319
-7.54424
-7.53576
-7.52812
-7.52137
-7.51518
-7.50935
-7.50416
-7.50046
-7.49901
-7.50025
-7.50453
-7.51205
-7.52263
-7.53614
-7.55239
-7.57124
-7.59253
-7.61611
-7.64187
-7.66971
-7.69951
-7.7312
-7.76467
-7.79985
-7.83667
-7.87501
-7.91478
-7.95587
-7.99813
-8.04142
-8.08555
-8.13032
-8.17549
-8.2208
-8.26599
-8.31077
-8.35483
-8.3979
-8.43966
-8.47985
-8.51819
-8.55441
-8.58828
-8.61957
-8.64808
-8.67363
-8.69604
-8.71519
-8.73093
-8.74315
-8.75175
-8.75666
-8.75781
-8.75512
-8.74854
-8.73798
-8.72339
-8.7047
-8.68185
-8.65476
-8.62334
-8.5875
-8.54722
-8.50245
-8.45305
-8.39885
-8.33974
-8.2756
-8.20631
-8.13173
-8.05175
-7.9662
-7.87496
-7.77787
-7.67481
-7.56567
-7.45036
-7.32879
-7.20091
-7.06667
-6.92603
-6.779
-6.62557
-6.4658
-6.2997
-6.12738
-5.94892
-5.76444
-5.57405
-5.37789
-5.17609
-4.96889
-4.75642
-4.539
-4.31676
-4.09002
-3.85892
-3.62383
-3.38489
-3.14248
-2.89678
-2.64818
-2.39688
-2.14326
-1.88754
-1.6301
-1.37118
-1.11114
-0.850254
-0.588832
-0.327109
-0.0654022
0.19602
0.456828
0.716756
0.975501
1.23284
1.48851
1.74234
1.9941
2.24367
2.49088
2.73561
2.97774
3.21722
3.45398
3.68798
3.91912
4.14739
4.37276
4.59528
4.81495
5.03181
5.2459
5.45728
5.66599
5.87207
6.07555
6.27643
6.47471
6.67043
6.86357
7.05411
7.24205
7.42731
7.60982
7.78945
7.96608
8.13927
8.30954
8.47278
8.64325
8.75883
-7.52187
-7.52519
-7.53203
-7.53946
-7.54684
-7.55417
-7.56139
-7.56841
-7.57512
-7.58139
-7.5871
-7.59215
-7.59643
-7.59986
-7.60237
-7.60391
-7.60444
-7.60394
-7.60238
-7.59977
-7.59608
-7.5913
-7.5855
-7.57889
-7.57172
-7.5642
-7.55664
-7.54929
-7.54221
-7.53544
-7.52904
-7.52297
-7.51744
-7.51295
-7.51022
-7.50978
-7.512
-7.51706
-7.52512
-7.53606
-7.5498
-7.56618
-7.58507
-7.6063
-7.62977
-7.65539
-7.68308
-7.71276
-7.74436
-7.77781
-7.81305
-7.84998
-7.88851
-7.92854
-7.96991
-8.01252
-8.05616
-8.10066
-8.14579
-8.19131
-8.23694
-8.28242
-8.32744
-8.37171
-8.41491
-8.45677
-8.49698
-8.53527
-8.57138
-8.60504
-8.63605
-8.6642
-8.68931
-8.71124
-8.72985
-8.74502
-8.75666
-8.76469
-8.76905
-8.76968
-8.76652
-8.75951
-8.74858
-8.73366
-8.71469
-8.69161
-8.66436
-8.63285
-8.59701
-8.55678
-8.51213
-8.46289
-8.40891
-8.35005
-8.2862
-8.21723
-8.14299
-8.06335
-7.97815
-7.88723
-7.79045
-7.68767
-7.57878
-7.46369
-7.34232
-7.21461
-7.0805
-6.93995
-6.79297
-6.63955
-6.47974
-6.31359
-6.14118
-5.96261
-5.77798
-5.58742
-5.39105
-5.18905
-4.98161
-4.76895
-4.5513
-4.32885
-4.10186
-3.87056
-3.63521
-3.39606
-3.1534
-2.90749
-2.65867
-2.40717
-2.15334
-1.89742
-1.63979
-1.38069
-1.12047
-0.859385
-0.597752
-0.335832
-0.0739454
0.187616
0.448533
0.70853
0.967317
1.22466
1.48032
1.73409
1.98579
2.23524
2.4823
2.72687
2.9688
3.20806
3.4446
3.67835
3.90919
4.13714
4.36216
4.58432
4.80361
5.0201
5.23382
5.44483
5.6532
5.85897
6.06214
6.26271
6.4607
6.65614
6.84903
7.03934
7.22706
7.41213
7.59445
7.77385
7.95019
8.12297
8.29271
8.45503
8.62516
8.73641
-7.5139
-7.51809
-7.52483
-7.53215
-7.53963
-7.54708
-7.55443
-7.5616
-7.56849
-7.57497
-7.58092
-7.58621
-7.59073
-7.5944
-7.59714
-7.59889
-7.59962
-7.59932
-7.59797
-7.59559
-7.59219
-7.58785
-7.58272
-7.57702
-7.57095
-7.56462
-7.55816
-7.55171
-7.54533
-7.53907
-7.53309
-7.52765
-7.52304
-7.51958
-7.51777
-7.51804
-7.52074
-7.52602
-7.53403
-7.54473
-7.55807
-7.57392
-7.59219
-7.61276
-7.63561
-7.66065
-7.68785
-7.71716
-7.74855
-7.78196
-7.81731
-7.85453
-7.89352
-7.93416
-7.9763
-8.01978
-8.06439
-8.10992
-8.1561
-8.20269
-8.24937
-8.29584
-8.34178
-8.38685
-8.43074
-8.47314
-8.51376
-8.55231
-8.58853
-8.62218
-8.65303
-8.68089
-8.70561
-8.72705
-8.74509
-8.75963
-8.77062
-8.778
-8.78173
-8.78177
-8.77807
-8.77057
-8.7592
-8.74389
-8.72458
-8.70121
-8.67373
-8.64207
-8.60615
-8.56595
-8.52137
-8.47225
-8.41843
-8.35978
-8.29617
-8.22745
-8.15351
-8.07414
-7.98922
-7.89854
-7.80198
-7.69939
-7.59068
-7.47574
-7.35449
-7.22685
-7.09277
-6.95221
-6.80517
-6.65167
-6.49172
-6.32542
-6.15281
-5.97403
-5.78914
-5.5983
-5.40162
-5.19933
-4.99157
-4.77864
-4.56066
-4.33794
-4.11063
-3.87905
-3.64337
-3.40396
-3.16099
-2.91485
-2.66573
-2.41401
-2.15991
-1.9038
-1.64593
-1.38666
-1.1262
-0.864917
-0.603055
-0.340947
-0.0788822
0.182796
0.443814
0.703853
0.962672
1.21999
1.47562
1.7293
1.98089
2.23019
2.47708
2.7214
2.96309
3.20207
3.43835
3.67178
3.90227
4.12981
4.35443
4.57615
4.79502
5.01107
5.22437
5.43498
5.64298
5.84841
6.05124
6.25147
6.44914
6.64429
6.8369
7.02698
7.21448
7.39936
7.58149
7.76066
7.9367
8.10907
8.27832
8.43979
8.60959
8.71721
-7.49869
-7.50313
-7.51001
-7.51794
-7.52604
-7.53395
-7.54165
-7.54914
-7.55636
-7.56318
-7.56948
-7.5751
-7.57992
-7.58386
-7.58686
-7.58888
-7.58988
-7.58988
-7.58889
-7.58695
-7.58413
-7.58053
-7.57628
-7.57151
-7.56637
-7.56098
-7.55539
-7.54969
-7.54398
-7.53844
-7.53328
-7.52865
-7.52482
-7.52214
-7.521
-7.52173
-7.52462
-7.52984
-7.5375
-7.54758
-7.5601
-7.57497
-7.5922
-7.61173
-7.63358
-7.65773
-7.68422
-7.71303
-7.74414
-7.77752
-7.81311
-7.85084
-7.8906
-7.93228
-7.97568
-8.0206
-8.06677
-8.11395
-8.16182
-8.21009
-8.2584
-8.30641
-8.35376
-8.40011
-8.4451
-8.48842
-8.52975
-8.5688
-8.60531
-8.63905
-8.66979
-8.69736
-8.72162
-8.74249
-8.75985
-8.77365
-8.78384
-8.79042
-8.79339
-8.79273
-8.7884
-8.78035
-8.76849
-8.75274
-8.73303
-8.7093
-8.68151
-8.64964
-8.61364
-8.57344
-8.52894
-8.47993
-8.42625
-8.36778
-8.30437
-8.23591
-8.16221
-8.0831
-7.9984
-7.90792
-7.81153
-7.7091
-7.60052
-7.48568
-7.3645
-7.23688
-7.10278
-6.96215
-6.815
-6.66133
-6.50121
-6.33468
-6.16183
-5.98276
-5.79757
-5.60639
-5.40937
-5.20672
-4.99864
-4.78536
-4.56706
-4.34399
-4.11636
-3.88445
-3.64847
-3.40874
-3.1655
-2.91907
-2.66969
-2.41771
-2.16337
-1.90703
-1.64895
-1.38945
-1.12878
-0.867259
-0.605186
-0.342891
-0.0806846
0.181103
0.442183
0.702256
0.961064
1.21834
1.47388
1.72745
1.97888
2.22798
2.47463
2.71869
2.96007
3.19875
3.43474
3.66785
3.89792
4.12499
4.34913
4.57036
4.78875
5.00433
5.21717
5.42734
5.63496
5.84003
6.04249
6.24235
6.43967
6.63449
6.82682
7.01665
7.20393
7.38862
7.57057
7.7495
7.92524
8.09722
8.26598
8.42669
8.59613
8.70082
-7.47571
-7.48005
-7.48773
-7.49695
-7.50603
-7.51455
-7.52268
-7.53063
-7.53835
-7.54573
-7.55254
-7.5586
-7.56378
-7.56804
-7.57134
-7.57365
-7.57497
-7.57534
-7.57479
-7.57339
-7.57121
-7.56837
-7.56497
-7.56114
-7.55694
-7.55247
-7.5478
-7.54306
-7.53836
-7.53382
-7.52956
-7.52578
-7.52277
-7.5208
-7.5202
-7.52121
-7.52408
-7.52892
-7.53587
-7.54495
-7.55622
-7.56968
-7.58543
-7.60351
-7.62401
-7.647
-7.67257
-7.70075
-7.73157
-7.76501
-7.80101
-7.83952
-7.8804
-7.9235
-7.96859
-8.01543
-8.0637
-8.11309
-8.16323
-8.21373
-8.26419
-8.31422
-8.36341
-8.41139
-8.45779
-8.50226
-8.54448
-8.58417
-8.62104
-8.65484
-8.68533
-8.71239
-8.73594
-8.75596
-8.7724
-8.78517
-8.7943
-8.79988
-8.80196
-8.80054
-8.79557
-8.78698
-8.77466
-8.75849
-8.7384
-8.7143
-8.68617
-8.65405
-8.61794
-8.57776
-8.53334
-8.48444
-8.4309
-8.3726
-8.30942
-8.24121
-8.16777
-8.08893
-8.00443
-7.91415
-7.81791
-7.71563
-7.60716
-7.49243
-7.37131
-7.24372
-7.10957
-6.96885
-6.82157
-6.66773
-6.50741
-6.34065
-6.16755
-5.98817
-5.80266
-5.61112
-5.41378
-5.21077
-5.0024
-4.78876
-4.57017
-4.34676
-4.11886
-3.88661
-3.65039
-3.41035
-3.16688
-2.92017
-2.6706
-2.41836
-2.16386
-1.90729
-1.64904
-1.38931
-1.12845
-0.866734
-0.604512
-0.342087
-0.0798144
0.18202
0.44309
0.703135
0.961858
1.21904
1.47441
1.72781
1.979
2.22786
2.47421
2.71794
2.95896
3.19733
3.43307
3.66586
3.89546
4.12203
4.34564
4.56636
4.78423
4.99932
5.21168
5.42141
5.62866
5.83342
6.03553
6.23499
6.43193
6.62643
6.81848
7.00806
7.19514
7.37967
7.56146
7.74017
7.91561
8.08719
8.25551
8.4155
8.58454
8.68699
-7.44568
-7.45028
-7.45935
-7.47027
-7.48047
-7.4896
-7.49836
-7.50707
-7.5156
-7.52373
-7.53124
-7.53785
-7.5434
-7.54789
-7.55137
-7.55391
-7.55549
-7.55618
-7.55602
-7.55511
-7.55353
-7.55142
-7.54885
-7.54595
-7.54278
-7.53946
-7.53604
-7.53259
-7.52916
-7.52585
-7.52281
-7.52016
-7.51813
-7.51691
-7.51676
-7.51783
-7.52034
-7.52438
-7.53014
-7.53766
-7.54715
-7.55869
-7.57248
-7.58864
-7.60738
-7.62886
-7.65323
-7.6806
-7.71103
-7.74455
-7.78112
-7.82066
-7.86302
-7.90798
-7.95525
-8.00452
-8.05542
-8.10754
-8.16042
-8.21362
-8.26664
-8.31902
-8.3703
-8.42007
-8.46793
-8.51352
-8.55653
-8.59665
-8.6336
-8.66713
-8.69699
-8.72311
-8.74555
-8.76441
-8.77962
-8.79102
-8.7987
-8.80304
-8.80421
-8.80213
-8.79669
-8.78777
-8.77519
-8.7588
-8.7385
-8.71418
-8.68576
-8.65343
-8.61721
-8.57704
-8.53267
-8.48383
-8.43038
-8.37221
-8.30924
-8.24128
-8.16811
-8.08949
-8.00519
-7.91504
-7.81893
-7.71677
-7.60842
-7.49378
-7.37271
-7.24511
-7.11089
-6.97005
-6.8226
-6.66858
-6.50803
-6.34104
-6.16766
-5.98797
-5.80211
-5.61022
-5.41253
-5.20922
-5.0005
-4.78657
-4.56767
-4.34399
-4.11579
-3.8833
-3.6468
-3.40654
-3.16285
-2.91596
-2.66622
-2.41386
-2.15925
-1.90264
-1.64431
-1.3845
-1.12355
-0.861793
-0.599559
-0.337173
-0.0749746
0.186736
0.447651
0.707495
0.965987
1.22289
1.47796
1.731
1.98181
2.23023
2.47612
2.71934
2.95983
3.1977
3.43302
3.66534
3.8944
4.1204
4.34345
4.56362
4.78095
4.99552
5.20737
5.41663
5.62355
5.82807
6.02988
6.22898
6.42557
6.61974
6.81152
7.00087
7.18777
7.37218
7.55386
7.7324
7.90755
8.07876
8.24664
8.40597
8.57456
8.67542
-7.41109
-7.4166
-7.42757
-7.44058
-7.45205
-7.46184
-7.47108
-7.48049
-7.49003
-7.49921
-7.50764
-7.51492
-7.52076
-7.52521
-7.5286
-7.53107
-7.53266
-7.53341
-7.5334
-7.53277
-7.53163
-7.53014
-7.5284
-7.52658
-7.5247
-7.52285
-7.52103
-7.5193
-7.51764
-7.5161
-7.51472
-7.51353
-7.51268
-7.51223
-7.51235
-7.51313
-7.51479
-7.51742
-7.52128
-7.52654
-7.53348
-7.54234
-7.55343
-7.56704
-7.58349
-7.60304
-7.62592
-7.65231
-7.68233
-7.71605
-7.75341
-7.79432
-7.83855
-7.88583
-7.93578
-7.98797
-8.04194
-8.09715
-8.15305
-8.20906
-8.26465
-8.31928
-8.37246
-8.42373
-8.47273
-8.51907
-8.56244
-8.60254
-8.63913
-8.67189
-8.70054
-8.72503
-8.74583
-8.76323
-8.77705
-8.78673
-8.79242
-8.79511
-8.79527
-8.79271
-8.78709
-8.77816
-8.76566
-8.74936
-8.72921
-8.70524
-8.67753
-8.64587
-8.61022
-8.57036
-8.52615
-8.47739
-8.42402
-8.36598
-8.30316
-8.23535
-8.16233
-8.08382
-7.99961
-7.90951
-7.81346
-7.71132
-7.603
-7.48833
-7.36721
-7.2395
-7.10511
-6.96405
-6.81634
-6.66204
-6.50118
-6.33385
-6.1601
-5.98005
-5.79377
-5.60151
-5.40341
-5.19975
-4.99064
-4.7764
-4.55714
-4.3332
-4.10468
-3.87196
-3.63519
-3.39477
-3.15086
-2.90386
-2.65397
-2.40157
-2.1469
-1.89029
-1.63193
-1.37213
-1.1112
-0.849516
-0.587374
-0.32514
-0.0631169
0.198361
0.459021
0.718552
0.976707
1.23321
1.48786
1.74042
1.99071
2.23856
2.48382
2.72634
2.96603
3.20282
3.43672
3.66771
3.89582
4.12103
4.34336
4.56282
4.77947
4.99335
5.20455
5.41316
5.61953
5.82364
6.02509
6.22386
6.42013
6.61401
6.80554
6.99469
7.18143
7.36576
7.54741
7.72585
7.90081
8.07171
8.2392
8.39793
8.56601
8.66591
-7.37438
-7.38109
-7.39447
-7.40965
-7.42182
-7.43203
-7.44233
-7.45303
-7.46363
-7.47369
-7.48282
-7.49054
-7.49648
-7.50077
-7.50385
-7.50596
-7.50718
-7.50761
-7.50739
-7.50674
-7.50583
-7.50491
-7.50409
-7.50357
-7.50333
-7.5035
-7.50393
-7.50464
-7.50545
-7.5063
-7.50705
-7.50762
-7.50798
-7.50808
-7.50805
-7.50789
-7.50788
-7.50813
-7.50907
-7.5109
-7.5142
-7.51927
-7.52675
-7.537
-7.55058
-7.5678
-7.58904
-7.6145
-7.64433
-7.67855
-7.7171
-7.75978
-7.80626
-7.85619
-7.90907
-7.9644
-8.02153
-8.07987
-8.13869
-8.19741
-8.25533
-8.31194
-8.36666
-8.41907
-8.46874
-8.51539
-8.55866
-8.59837
-8.63421
-8.6658
-8.6924
-8.71405
-8.732
-8.74743
-8.76025
-8.76981
-8.77578
-8.7784
-8.77817
-8.77512
-8.76915
-8.75993
-8.74725
-8.73079
-8.71063
-8.68699
-8.65987
-8.62894
-8.59374
-8.5542
-8.51014
-8.46153
-8.40835
-8.35053
-8.2879
-8.22026
-8.14737
-8.06901
-7.98493
-7.895
-7.7991
-7.6971
-7.58887
-7.47426
-7.35315
-7.2254
-7.09095
-6.94978
-6.80193
-6.64743
-6.48636
-6.31877
-6.14476
-5.96441
-5.77787