/*--------------------------------*- C++ -*----------------------------------*\
  =========                 |
  \\      /  F ield         | OpenFOAM: The Open Source CFD Toolbox
   \\    /   O peration     | Website:  https://openfoam.org
    \\  /    A nd           | Version:  13
     \\/     M anipulation  |
\*---------------------------------------------------------------------------*/
FoamFile
{
    format      ascii;
    class       surfaceScalarField;
    location    "1200";
    object      phi;
}
// * * * * * * * * * * * * * * * * * * * * * * * * * * * * * * * * * * * * * //

dimensions      [0 3 -1 0 0 0 0];

internalField   nonuniform List<scalar> 
24170
(
3.06549e-06
1.22917e-07
2.92117e-06
1.44315e-07
2.79425e-06
1.26935e-07
2.68085e-06
1.13348e-07
2.57978e-06
1.01077e-07
2.49201e-06
8.77333e-08
2.41597e-06
7.60878e-08
2.35253e-06
6.34795e-08
2.30248e-06
5.00803e-08
2.2619e-06
4.06222e-08
2.22869e-06
3.32353e-08
2.20043e-06
2.82899e-08
2.17637e-06
2.40825e-08
2.15764e-06
1.87567e-08
2.14401e-06
1.36357e-08
2.13424e-06
9.77617e-09
2.12869e-06
5.57609e-09
-7.27401e-10
2.12944e-06
3.46743e-06
7.27468e-08
3.50208e-06
1.0976e-07
3.51806e-06
1.11037e-07
3.52096e-06
1.10456e-07
3.51361e-06
1.08443e-07
3.49668e-06
1.04621e-07
3.4711e-06
1.01679e-07
3.44096e-06
9.36054e-08
3.40818e-06
8.28451e-08
3.37371e-06
7.50858e-08
3.33966e-06
6.72768e-08
3.30732e-06
6.06263e-08
3.27755e-06
5.38596e-08
3.2508e-06
4.55089e-08
3.22724e-06
3.72024e-08
3.20587e-06
3.11533e-08
3.18461e-06
2.68498e-08
2.15237e-08
3.16238e-06
3.68118e-06
5.40807e-08
3.69937e-06
9.15319e-08
3.71323e-06
9.71602e-08
3.72528e-06
9.83805e-08
3.73508e-06
9.8623e-08
3.74239e-06
9.72996e-08
3.74841e-06
9.56928e-08
3.75159e-06
9.04689e-08
3.75121e-06
8.32422e-08
3.74911e-06
7.72148e-08
3.74541e-06
7.099e-08
3.74086e-06
6.51996e-08
3.73577e-06
5.89661e-08
3.72966e-06
5.16356e-08
3.72243e-06
4.44417e-08
3.71476e-06
3.88247e-08
3.7073e-06
3.43245e-08
2.89274e-08
3.69989e-06
3.93621e-06
4.32712e-08
3.949e-06
7.87945e-08
3.95818e-06
8.80352e-08
3.96596e-06
9.06242e-08
3.97288e-06
9.17139e-08
3.97914e-06
9.10239e-08
3.98564e-06
8.91863e-08
3.99133e-06
8.47577e-08
3.99564e-06
7.89064e-08
3.99937e-06
7.34652e-08
4.00243e-06
6.79154e-08
4.00512e-06
6.2494e-08
4.00742e-06
5.66663e-08
4.00896e-06
5.00944e-08
4.00969e-06
4.37124e-08
4.01011e-06
3.84188e-08
4.01067e-06
3.37787e-08
2.888e-08
4.01073e-06
4.2152e-06
3.51944e-08
4.2257e-06
6.82569e-08
4.23379e-06
7.99309e-08
4.24053e-06
8.3871e-08
4.24658e-06
8.56479e-08
4.25218e-06
8.54114e-08
4.25785e-06
8.35394e-08
4.26304e-06
7.95971e-08
4.26744e-06
7.45138e-08
4.27149e-06
6.94363e-08
4.27518e-06
6.42366e-08
4.27865e-06
5.90311e-08
4.28181e-06
5.35199e-08
4.28435e-06
4.75656e-08
4.28625e-06
4.18165e-08
4.28786e-06
3.68128e-08
4.28939e-06
3.22555e-08
2.7836e-08
4.29043e-06
4.51563e-06
2.86511e-08
4.52458e-06
5.93451e-08
4.53222e-06
7.23218e-08
4.53878e-06
7.73267e-08
4.54475e-06
7.96817e-08
4.55031e-06
7.98423e-08
4.55573e-06
7.81162e-08
4.56071e-06
7.4612e-08
4.5651e-06
7.01102e-08
4.56915e-06
6.53717e-08
4.57291e-06
6.0463e-08
4.57645e-06
5.54849e-08
4.57968e-06
5.02906e-08
4.58238e-06
4.48636e-08
4.58456e-06
3.96422e-08
4.58643e-06
3.49435e-08
4.58809e-06
3.06114e-08
2.65871e-08
4.58936e-06
4.83798e-06
2.33901e-08
4.84587e-06
5.14181e-08
4.85316e-06
6.50154e-08
4.85967e-06
7.08053e-08
4.86573e-06
7.36148e-08
4.87142e-06
7.41457e-08
4.87686e-06
7.26914e-08
4.88186e-06
6.96228e-08
4.88636e-06
6.56217e-08
4.8905e-06
6.12383e-08
4.89434e-06
5.66288e-08
4.89792e-06
5.19133e-08
4.90117e-06
4.70485e-08
4.90396e-06
4.20773e-08
4.90631e-06
3.72997e-08
4.90835e-06
3.29041e-08
4.91015e-06
2.88284e-08
2.5078e-08
4.91163e-06
5.18377e-06
1.91988e-08
5.19083e-06
4.43676e-08
5.19777e-06
5.80937e-08
5.2042e-06
6.43816e-08
5.21032e-06
6.74895e-08
5.21615e-06
6.83144e-08
5.22169e-06
6.71501e-08
5.22682e-06
6.44902e-08
5.2315e-06
6.09403e-08
5.2358e-06
5.69336e-08
5.23977e-06
5.26596e-08
5.24343e-06
4.82523e-08
5.24674e-06
4.37343e-08
5.24964e-06
3.91813e-08
5.25214e-06
3.47991e-08
5.25434e-06
3.07106e-08
5.25627e-06
2.68966e-08
2.34158e-08
5.25793e-06
5.55469e-06
1.58474e-08
5.56099e-06
3.80396e-08
5.56757e-06
5.14915e-08
5.57389e-06
5.80541e-08
5.58003e-06
6.13348e-08
5.58596e-06
6.23856e-08
5.5916e-06
6.15146e-08
5.59687e-06
5.92345e-08
5.60173e-06
5.60903e-08
5.60621e-06
5.24553e-08
5.61034e-06
4.85354e-08
5.61413e-06
4.44645e-08
5.61756e-06
4.03069e-08
5.6206e-06
3.61498e-08
5.62326e-06
3.21371e-08
5.62562e-06
2.83574e-08
5.62769e-06
2.48265e-08
2.15836e-08
5.6295e-06
5.95248e-06
1.3136e-08
5.95807e-06
3.24496e-08
5.96432e-06
4.52525e-08
5.9705e-06
5.18723e-08
5.97662e-06
5.52102e-08
5.9826e-06
5.64089e-08
5.98832e-06
5.57926e-08
5.9937e-06
5.38504e-08
5.99871e-06
5.10759e-08
6.00336e-06
4.78027e-08
6.00766e-06
4.42384e-08
6.0116e-06
4.05179e-08
6.01518e-06
3.67289e-08
6.01838e-06
3.29573e-08
6.02121e-06
2.93076e-08
6.02373e-06
2.58462e-08
6.02595e-06
2.25978e-08
1.96206e-08
6.02791e-06
6.37903e-06
1.09149e-08
6.38398e-06
2.748e-08
6.38989e-06
3.93348e-08
6.39593e-06
4.58227e-08
6.402e-06
4.9129e-08
6.40799e-06
5.04133e-08
6.41377e-06
5.00174e-08
6.41924e-06
4.83813e-08
6.42437e-06
4.59464e-08
6.42916e-06
4.30203e-08
6.4336e-06
3.98027e-08
6.43769e-06
3.64337e-08
6.44142e-06
3.30008e-08
6.44478e-06
2.9601e-08
6.44779e-06
2.63023e-08
6.45048e-06
2.31686e-08
6.45286e-06
2.02233e-08
1.74936e-08
6.45496e-06
5.74243e-06
9.31621e-09
5.74618e-06
2.37143e-08
5.75093e-06
3.45821e-08
5.75593e-06
4.08136e-08
5.76102e-06
4.40368e-08
5.76608e-06
4.53539e-08
5.77099e-06
4.51105e-08
5.77566e-06
4.37098e-08
5.78007e-06
4.15459e-08
5.78419e-06
3.89032e-08
5.78802e-06
3.59763e-08
5.79157e-06
3.28859e-08
5.79482e-06
2.97576e-08
5.79778e-06
2.66424e-08
5.80045e-06
2.36405e-08
5.80285e-06
2.07701e-08
5.80499e-06
1.80742e-08
1.55718e-08
5.8069e-06
6.99972e-06
7.75114e-09
7.0036e-06
1.98211e-08
7.00871e-06
2.94568e-08
7.01428e-06
3.52396e-08
7.02004e-06
3.82746e-08
7.02582e-06
3.95646e-08
7.03148e-06
3.94528e-08
7.03691e-06
3.82861e-08
7.04205e-06
3.64101e-08
7.04688e-06
3.40829e-08
7.05138e-06
3.14704e-08
7.05555e-06
2.87221e-08
7.05939e-06
2.5912e-08
7.0629e-06
2.31433e-08
7.06608e-06
2.0448e-08
7.06897e-06
1.78936e-08
7.07155e-06
1.54711e-08
1.32465e-08
7.07387e-06
8.53239e-06
6.20679e-09
8.53631e-06
1.58851e-08
8.54175e-06
2.40101e-08
8.54787e-06
2.91154e-08
8.55431e-06
3.18268e-08
8.56086e-06
3.30128e-08
8.56733e-06
3.2985e-08
8.57358e-06
3.20406e-08
8.57954e-06
3.04589e-08
8.58515e-06
2.84661e-08
8.5904e-06
2.62181e-08
8.59528e-06
2.38388e-08
8.59978e-06
2.14108e-08
8.6039e-06
1.90107e-08
8.60767e-06
1.66818e-08
8.61109e-06
1.44643e-08
8.61418e-06
1.23762e-08
1.04403e-08
8.61695e-06
1.04007e-05
4.67899e-09
1.04047e-05
1.19329e-08
1.04104e-05
1.82889e-08
1.04171e-05
2.24539e-08
1.04242e-05
2.46835e-08
1.04315e-05
2.566e-08
1.04389e-05
2.56573e-08
1.0446e-05
2.48981e-08
1.04529e-05
2.36137e-08
1.04593e-05
2.19698e-08
1.04654e-05
2.01254e-08
1.04711e-05
1.81517e-08
1.04764e-05
1.61602e-08
1.04812e-05
1.41686e-08
1.04856e-05
1.22584e-08
1.04896e-05
1.04222e-08
1.04933e-05
8.71247e-09
7.12195e-09
1.04966e-05
1.26783e-05
3.1471e-09
1.26823e-05
7.94216e-09
1.26883e-05
1.229e-08
1.26955e-05
1.52502e-08
1.27034e-05
1.68092e-08
1.27116e-05
1.74605e-08
1.27198e-05
1.73952e-08
1.27279e-05
1.67838e-08
1.27358e-05
1.57726e-08
1.27432e-05
1.45072e-08
1.27502e-05
1.30743e-08
1.27568e-05
1.15727e-08
1.27629e-05
1.00332e-08
1.27686e-05
8.52681e-09
1.27738e-05
7.05696e-09
1.27786e-05
5.6775e-09
1.27829e-05
4.36902e-09
3.18448e-09
1.27868e-05
1.54547e-05
1.5786e-09
1.54589e-05
3.7905e-09
1.54653e-05
5.9198e-09
1.54731e-05
7.41228e-09
1.54818e-05
8.10004e-09
1.5491e-05
8.28814e-09
1.55003e-05
8.0744e-09
1.55095e-05
7.55245e-09
1.55185e-05
6.80624e-09
1.5527e-05
5.91542e-09
1.55352e-05
4.93884e-09
1.55428e-05
3.92542e-09
1.55499e-05
2.90585e-09
1.55565e-05
1.91066e-09
1.55627e-05
9.55942e-10
1.55683e-05
6.14446e-11
1.55734e-05
-7.72372e-10
-1.52365e-09
1.55781e-05
1.88393e-05
-1.16653e-10
1.88439e-05
-7.61983e-10
1.88509e-05
-1.12841e-09
1.88597e-05
-1.375e-09
1.88696e-05
-1.76309e-09
1.888e-05
-2.1721e-09
1.88907e-05
-2.61511e-09
1.89013e-05
-3.08627e-09
1.89117e-05
-3.57407e-09
1.89217e-05
-4.06538e-09
1.89312e-05
-4.55035e-09
1.89401e-05
-5.0199e-09
1.89485e-05
-5.46694e-09
1.89563e-05
-5.88522e-09
1.89635e-05
-6.26906e-09
1.89702e-05
-6.61397e-09
1.89763e-05
-6.92169e-09
-7.18083e-09
1.8982e-05
2.29654e-05
-2.15228e-09
2.29709e-05
-6.27483e-09
2.29794e-05
-9.60396e-09
2.29899e-05
-1.19188e-08
2.30017e-05
-1.35759e-08
2.30142e-05
-1.46849e-08
2.3027e-05
-1.53944e-08
2.30397e-05
-1.58003e-08
2.30521e-05
-1.59763e-08
2.3064e-05
-1.59891e-08
2.30753e-05
-1.58887e-08
2.3086e-05
-1.57108e-08
2.3096e-05
-1.54827e-08
2.31054e-05
-1.52194e-08
2.31141e-05
-1.49367e-08
2.31221e-05
-1.46374e-08
2.31295e-05
-1.4335e-08
-1.40212e-08
2.31363e-05
1.68124e-05
-3.89477e-09
1.68171e-05
-1.08947e-08
1.6824e-05
-1.65403e-08
1.68324e-05
-2.03271e-08
1.68416e-05
-2.28236e-08
1.68513e-05
-2.4362e-08
1.68611e-05
-2.51855e-08
1.68708e-05
-2.54626e-08
1.68801e-05
-2.53352e-08
1.6889e-05
-2.49363e-08
1.68975e-05
-2.43516e-08
1.69054e-05
-2.36612e-08
1.69129e-05
-2.28969e-08
1.69197e-05
-2.2115e-08
1.69261e-05
-2.13173e-08
1.6932e-05
-2.05418e-08
1.69375e-05
-1.97787e-08
-1.90502e-08
1.69425e-05
1.46364e-05
-5.74691e-09
1.46413e-05
-1.58039e-08
1.46484e-05
-2.36465e-08
1.46567e-05
-2.86264e-08
1.46656e-05
-3.17206e-08
1.46748e-05
-3.35121e-08
1.46839e-05
-3.4328e-08
1.46929e-05
-3.43784e-08
1.47014e-05
-3.38878e-08
1.47095e-05
-3.3044e-08
1.47171e-05
-3.197e-08
1.47242e-05
-3.07613e-08
1.47308e-05
-2.94897e-08
1.47369e-05
-2.82011e-08
1.47425e-05
-2.69349e-08
1.47477e-05
-2.57026e-08
1.47524e-05
-2.45272e-08
-2.33994e-08
1.47568e-05
1.27422e-05
-7.8026e-09
1.27478e-05
-2.13923e-08
1.27553e-05
-3.11878e-08
1.27637e-05
-3.69662e-08
1.27723e-05
-4.03882e-08
1.27811e-05
-4.22809e-08
1.27897e-05
-4.29302e-08
1.2798e-05
-4.26421e-08
1.28059e-05
-4.17214e-08
1.28132e-05
-4.03814e-08
1.28201e-05
-3.88025e-08
1.28264e-05
-3.7077e-08
1.28322e-05
-3.53047e-08
1.28375e-05
-3.35348e-08
1.28424e-05
-3.18266e-08
1.28469e-05
-3.01852e-08
1.2851e-05
-2.86453e-08
-2.71917e-08
1.28548e-05
1.10933e-05
-1.01829e-08
1.11e-05
-2.8107e-08
1.11081e-05
-3.92718e-08
1.11164e-05
-4.52636e-08
1.11247e-05
-4.87376e-08
1.1133e-05
-5.05612e-08
1.11411e-05
-5.09472e-08
1.11487e-05
-5.02458e-08
1.11558e-05
-4.88353e-08
1.11624e-05
-4.7e-08
1.11686e-05
-4.48912e-08
1.11741e-05
-4.26523e-08
1.11792e-05
-4.0365e-08
1.11838e-05
-3.81398e-08
1.1188e-05
-3.59952e-08
1.11918e-05
-3.39752e-08
1.11952e-05
-3.20879e-08
-3.02941e-08
1.11983e-05
9.65803e-06
-1.30054e-08
9.66616e-06
-3.62419e-08
9.67466e-06
-4.77743e-08
9.68271e-06
-5.33161e-08
9.69064e-06
-5.66564e-08
9.6984e-06
-5.83375e-08
9.7058e-06
-5.83348e-08
9.71275e-06
-5.71843e-08
9.71921e-06
-5.53008e-08
9.7252e-06
-5.29594e-08
9.73067e-06
-5.03567e-08
9.73564e-06
-4.7606e-08
9.74011e-06
-4.48424e-08
9.74413e-06
-4.214e-08
9.74773e-06
-3.95799e-08
9.75094e-06
-3.71836e-08
9.75382e-06
-3.49449e-08
-3.28127e-08
9.75634e-06
8.40862e-06
-1.62786e-08
8.41823e-06
-4.58621e-08
8.42674e-06
-5.63053e-08
8.43448e-06
-6.10547e-08
8.44215e-06
-6.43308e-08
8.44942e-06
-6.55864e-08
8.45613e-06
-6.505e-08
8.46237e-06
-6.34242e-08
8.46816e-06
-6.10832e-08
8.47351e-06
-5.83267e-08
8.47841e-06
-5.52602e-08
8.48284e-06
-5.20482e-08
8.48684e-06
-4.8821e-08
8.49042e-06
-4.57128e-08
8.49362e-06
-4.27691e-08
8.49648e-06
-4.00166e-08
8.49899e-06
-3.74674e-08
-3.5108e-08
8.5013e-06
7.32261e-06
-2.16082e-08
7.33183e-06
-5.50995e-08
7.33972e-06
-6.41968e-08
7.34734e-06
-6.86928e-08
7.35491e-06
-7.18849e-08
7.36171e-06
-7.23901e-08
7.36785e-06
-7.11912e-08
7.3735e-06
-6.90778e-08
7.37873e-06
-6.63284e-08
7.38355e-06
-6.31451e-08
7.38794e-06
-5.96678e-08
7.39193e-06
-5.60356e-08
7.39552e-06
-5.24233e-08
7.39874e-06
-4.89317e-08
7.40163e-06
-4.56507e-08
7.40422e-06
-4.26078e-08
7.40655e-06
-3.97912e-08
-3.73948e-08
7.40883e-06
6.37851e-06
-3.00494e-08
6.38629e-06
-6.29044e-08
6.39327e-06
-7.1208e-08
6.40103e-06
-7.63896e-08
6.40856e-06
-7.94544e-08
6.41551e-06
-7.93416e-08
6.42205e-06
-7.77342e-08
6.42819e-06
-7.52193e-08
6.43405e-06
-7.21933e-08
6.4396e-06
-6.87142e-08
6.44484e-06
-6.49068e-08
6.44975e-06
-6.096e-08
6.4543e-06
-5.69747e-08
6.45847e-06
-5.31086e-08
6.46229e-06
-4.94758e-08
6.46582e-06
-4.6135e-08
6.4691e-06
-4.30775e-08
-4.057e-08
6.47225e-06
5.55937e-06
-4.39535e-08
5.56844e-06
-7.20032e-08
5.58002e-06
-8.2781e-08
5.5947e-06
-9.10487e-08
5.60991e-06
-9.46857e-08
5.62541e-06
-9.48562e-08
5.64076e-06
-9.30903e-08
5.65531e-06
-8.97743e-08
5.66869e-06
-8.55799e-08
5.68066e-06
-8.06877e-08
5.69122e-06
-7.54741e-08
5.70039e-06
-7.01477e-08
5.70821e-06
-6.48055e-08
5.71476e-06
-5.96699e-08
5.72021e-06
-5.49224e-08
5.72466e-06
-5.05869e-08
5.72827e-06
-4.67127e-08
-4.38043e-08
5.7315e-06
4.88877e-06
-1.0512e-07
4.93972e-06
-1.2298e-07
4.98252e-06
-1.25572e-07
5.01515e-06
-1.23655e-07
5.03631e-06
-1.15871e-07
5.04634e-06
-1.04904e-07
5.04635e-06
-9.31059e-08
5.03852e-06
-8.19496e-08
5.02585e-06
-7.29231e-08
5.0105e-06
-6.53362e-08
4.99356e-06
-5.85501e-08
4.97572e-06
-5.23229e-08
4.95744e-06
-4.65467e-08
4.93883e-06
-4.10664e-08
4.91985e-06
-3.59444e-08
4.90072e-06
-3.14576e-08
4.88165e-06
-2.76558e-08
-2.50371e-08
4.86285e-06
4.09756e-06
3.97458e-06
3.84901e-06
3.72535e-06
3.60948e-06
3.50457e-06
3.41146e-06
3.32951e-06
3.25659e-06
3.19125e-06
3.1327e-06
3.08037e-06
3.03383e-06
2.99276e-06
2.95681e-06
2.92535e-06
2.89769e-06
2.87265e-06
-7.77478e-09
7.71412e-09
-2.13097e-08
1.33821e-08
-3.63964e-08
1.49936e-08
-5.00811e-08
1.35327e-08
-5.76252e-08
7.46994e-09
-5.31095e-08
-4.68996e-09
-3.35223e-08
-1.96112e-08
-9.86039e-10
-3.27094e-08
4.11658e-08
-4.21457e-08
8.83728e-08
-4.73313e-08
1.36427e-07
-4.80276e-08
1.81858e-07
-4.55146e-08
2.22721e-07
-4.08346e-08
2.57455e-07
-3.47909e-08
2.85418e-07
-2.79393e-08
3.06005e-07
-2.06277e-08
3.1903e-07
-1.30145e-08
3.24126e-07
-5.12417e-09
3.21072e-07
3.05442e-09
3.09738e-07
1.13117e-08
2.90458e-07
1.92544e-08
2.63946e-07
2.6495e-08
2.31224e-07
3.26652e-08
1.93862e-07
3.734e-08
1.53717e-07
4.00574e-08
1.13265e-07
4.04034e-08
7.49926e-08
3.8127e-08
4.15845e-08
3.33182e-08
1.47788e-08
2.66102e-08
-4.56218e-09
1.92078e-08
-1.72936e-08
1.2514e-08
-2.42954e-08
6.88173e-09
-2.61746e-08
1.68672e-09
-2.24685e-08
-3.80112e-09
-1.20924e-08
-1.05672e-08
6.71635e-09
-1.88669e-08
3.40028e-08
-2.74396e-08
6.70349e-08
-3.30345e-08
9.98887e-08
-3.29463e-08
1.27305e-07
-2.73776e-08
1.45586e-07
-1.83266e-08
1.54191e-07
-8.54075e-09
1.55306e-07
-1.13003e-09
1.52597e-07
2.78266e-09
1.48839e-07
3.72584e-09
1.46051e-07
2.90251e-09
1.41256e-07
4.68028e-09
1.27163e-07
1.43733e-08
9.5041e-08
3.1944e-08
3.91158e-08
5.64428e-08
-4.13796e-08
8.0442e-08
-1.3969e-07
9.88727e-08
-2.54307e-07
1.14635e-07
-3.81523e-07
1.27622e-07
-5.18835e-07
1.37344e-07
-6.61425e-07
1.42881e-07
-8.04883e-07
1.43525e-07
-9.45456e-07
1.40779e-07
-1.08115e-06
1.35766e-07
-1.20903e-06
1.28014e-07
-1.32817e-06
1.19222e-07
-1.43909e-06
1.11005e-07
-1.54192e-06
1.02907e-07
-1.63572e-06
9.38545e-08
-1.72161e-06
8.59875e-08
-1.80117e-06
7.9579e-08
-1.87436e-06
7.32668e-08
-1.94224e-06
6.78783e-08
-2.00524e-06
6.30834e-08
-2.06411e-06
5.88595e-08
-2.11917e-06
5.51468e-08
-2.17104e-06
5.18383e-08
-2.21985e-06
4.8898e-08
-2.26612e-06
4.62285e-08
-2.30988e-06
4.38169e-08
-2.35153e-06
4.1581e-08
-2.39102e-06
3.9524e-08
-2.42868e-06
3.75833e-08
-2.4644e-06
3.5773e-08
-2.49849e-06
3.40314e-08
-2.53082e-06
3.23823e-08
-2.56164e-06
3.07768e-08
-2.5908e-06
2.92412e-08
-2.61856e-06
2.77251e-08
-2.64476e-06
2.62629e-08
-2.6696e-06
2.48167e-08
-2.69295e-06
2.34193e-08
-2.71493e-06
2.20299e-08
-2.73544e-06
2.06626e-08
-2.7545e-06
1.93054e-08
-2.77225e-06
1.7933e-08
-2.78867e-06
1.6543e-08
-2.80372e-06
1.513e-08
-2.81734e-06
1.36935e-08
-2.82949e-06
1.22235e-08
-2.84014e-06
1.07159e-08
-2.84923e-06
9.15615e-09
-2.85669e-06
7.53463e-09
-2.86247e-06
5.83182e-09
-2.86645e-06
4.03817e-09
-2.86858e-06
2.1697e-09
-2.86887e-06
2.92033e-10
-2.8675e-06
-1.38166e-09
-2.86469e-06
-2.86389e-09
-2.86044e-06
-4.29554e-09
-2.85477e-06
-5.72892e-09
-2.84764e-06
-7.15312e-09
-2.83906e-06
-8.5958e-09
-2.82902e-06
-1.00345e-08
-2.81751e-06
-1.14912e-08
-2.80452e-06
-1.29453e-08
-2.79006e-06
-1.44117e-08
-2.77411e-06
-1.58744e-08
-2.7567e-06
-1.73394e-08
-2.73782e-06
-1.87974e-08
-2.71747e-06
-2.0248e-08
-2.69567e-06
-2.16935e-08
-2.67244e-06
-2.31309e-08
-2.64779e-06
-2.45647e-08
-2.62173e-06
-2.59771e-08
-2.59427e-06
-2.73684e-08
-2.56539e-06
-2.87162e-08
-2.53517e-06
-3.00481e-08
-2.50362e-06
-3.13328e-08
-2.47083e-06
-3.2616e-08
-2.43677e-06
-3.38448e-08
-2.40156e-06
-3.50703e-08
-2.36514e-06
-3.62258e-08
-2.32766e-06
-3.73751e-08
-2.28905e-06
-3.84422e-08
-2.24945e-06
-3.95181e-08
-2.20881e-06
-4.04962e-08
-2.16731e-06
-4.14671e-08
-2.12488e-06
-4.23298e-08
-2.08173e-06
-4.31755e-08
-2.03779e-06
-4.39014e-08
-1.99332e-06
-4.4565e-08
-1.94817e-06
-4.5253e-08
-1.90241e-06
-4.60515e-08
-1.85604e-06
-4.6727e-08
-1.80913e-06
-4.73338e-08
-1.76166e-06
-4.78469e-08
-1.7137e-06
-4.82871e-08
-1.66532e-06
-4.8648e-08
-1.61661e-06
-4.89579e-08
-1.5676e-06
-4.92076e-08
-1.51837e-06
-4.94177e-08
-1.46893e-06
-4.95778e-08
-1.41934e-06
-4.97055e-08
-1.36963e-06
-4.97919e-08
-1.31984e-06
-4.9852e-08
-1.27e-06
-4.98787e-08
-1.22014e-06
-4.98824e-08
-1.17028e-06
-4.9857e-08
-1.12045e-06
-4.98094e-08
-1.07067e-06
-4.97397e-08
-1.02096e-06
-4.96557e-08
-9.71319e-07
-4.95642e-08
-9.21761e-07
-4.94707e-08
-8.72263e-07
-4.93871e-08
-8.22829e-07
-4.93154e-08
-7.73425e-07
-4.92691e-08
-7.24039e-07
-4.9243e-08
-6.7464e-07
-4.92502e-08
-6.25204e-07
-4.92776e-08
-5.75712e-07
-4.93375e-08
-5.26134e-07
-4.94142e-08
-4.76458e-07
-4.95259e-08
-4.26643e-07
-4.9654e-08
-3.76689e-07
-4.98179e-08
-3.26546e-07
-4.99927e-08
-2.76253e-07
-5.01758e-08
-2.25787e-07
-5.03301e-08
-1.75257e-07
-5.04331e-08
-1.24787e-07
-5.03493e-08
-7.48506e-08
-4.98601e-08
-2.59337e-08
-4.88143e-08
2.01959e-08
-4.60947e-08
6.34992e-08
-4.32605e-08
-2.09166e-08
8.43709e-08
-3.55589e-09
1.11676e-08
-1.0287e-08
1.98422e-08
-1.42059e-08
1.87571e-08
-9.11533e-09
8.13295e-09
1.07089e-08
-1.24655e-08
4.45819e-08
-3.87459e-08
8.90595e-08
-6.41121e-08
1.39161e-07
-8.29026e-08
1.90101e-07
-9.30877e-08
2.38015e-07
-9.53093e-08
2.81326e-07
-9.1336e-08
3.19003e-07
-8.32381e-08
3.50889e-07
-7.27158e-08
3.77003e-07
-6.0938e-08
3.97698e-07
-4.86296e-08
4.1325e-07
-3.62044e-08
4.24099e-07
-2.38617e-08
4.30654e-07
-1.16987e-08
4.33416e-07
2.84826e-10
4.32538e-07
1.21791e-08
4.27715e-07
2.40544e-08
4.18403e-07
3.57889e-08
4.03943e-07
4.70904e-08
3.83812e-07
5.74471e-08
3.57659e-07
6.61516e-08
3.25668e-07
7.23507e-08
2.88536e-07
7.51758e-08
2.47802e-07
7.3989e-08
2.05673e-07
6.86237e-08
1.65284e-07
5.95087e-08
1.30199e-07
4.74361e-08
1.03828e-07
3.31439e-08
8.82497e-08
1.7063e-08
8.49346e-08
-5.90647e-10
9.32847e-08
-1.90965e-08
1.11528e-07
-3.71622e-08
1.34831e-07
-5.08439e-08
1.56614e-07
-5.48201e-08
1.71361e-07
-4.77395e-08
1.76849e-07
-3.28269e-08
1.72796e-07
-1.4291e-08
1.60131e-07
4.19365e-09
1.40758e-07
1.82035e-08
1.13263e-07
3.03865e-08
6.88421e-08
4.80352e-08
-9.81687e-10
7.28156e-08
-1.01263e-07
1.0487e-07
-2.27497e-07
1.40671e-07
-3.70513e-07
1.7496e-07
-5.2076e-07
2.0678e-07
-6.74518e-07
2.34246e-07
-8.30311e-07
2.54802e-07
-9.843e-07
2.68708e-07
-1.13246e-06
2.75915e-07
-1.27133e-06
2.76299e-07
-1.39854e-06
2.70216e-07
-1.51361e-06
2.58676e-07
-1.61629e-06
2.43568e-07
-1.70701e-06
2.2657e-07
-1.78748e-06
2.0856e-07
-1.85906e-06
1.90876e-07
-1.9227e-06
1.74701e-07
-1.97969e-06
1.59966e-07
-2.03216e-06
1.46372e-07
-2.08045e-06
1.34329e-07
-2.12485e-06
1.24008e-07
-2.16643e-06
1.14888e-07
-2.20549e-06
1.06966e-07
-2.2424e-06
1.00025e-07
-2.27743e-06
9.39044e-08
-2.31072e-06
8.84685e-08
-2.34246e-06
8.35879e-08
-2.3727e-06
7.91688e-08
-2.40158e-06
7.51153e-08
-2.42911e-06
7.13673e-08
-2.45541e-06
6.78577e-08
-2.48044e-06
6.45557e-08
-2.50428e-06
6.14128e-08
-2.52691e-06
5.84105e-08
-2.5484e-06
5.55124e-08
-2.56872e-06
5.27122e-08
-2.58792e-06
4.9981e-08
-2.60597e-06
4.73169e-08
-2.62293e-06
4.46959e-08
-2.63877e-06
4.21238e-08
-2.65354e-06
3.95828e-08
-2.66717e-06
3.70786e-08
-2.67969e-06
3.45907e-08
-2.69102e-06
3.21199e-08
-2.7012e-06
2.96449e-08
-2.71029e-06
2.71524e-08
-2.7183e-06
2.46385e-08
-2.72521e-06
2.20937e-08
-2.73099e-06
1.95241e-08
-2.73563e-06
1.69157e-08
-2.73914e-06
1.42734e-08
-2.74153e-06
1.15833e-08
-2.7428e-06
8.85642e-09
-2.74303e-06
6.09182e-09
-2.74228e-06
3.32185e-09
-2.74066e-06
5.65199e-10
-2.73821e-06
-2.15752e-09
-2.73474e-06
-4.88679e-09
-2.72999e-06
-7.65387e-09
-2.7239e-06
-1.0441e-08
-2.71641e-06
-1.32478e-08
-2.70753e-06
-1.60687e-08
-2.69722e-06
-1.8911e-08
-2.68549e-06
-2.17661e-08
-2.67232e-06
-2.46406e-08
-2.65771e-06
-2.75233e-08
-2.64166e-06
-3.04185e-08
-2.62417e-06
-3.33129e-08
-2.60525e-06
-3.62082e-08
-2.58489e-06
-3.90904e-08
-2.56311e-06
-4.19619e-08
-2.53991e-06
-4.48147e-08
-2.51532e-06
-4.76573e-08
-2.48935e-06
-5.04758e-08
-2.46202e-06
-5.32597e-08
-2.43331e-06
-5.59901e-08
-2.40326e-06
-5.86598e-08
-2.37189e-06
-6.12721e-08
-2.33926e-06
-6.38269e-08
-2.30539e-06
-6.63328e-08
-2.27034e-06
-6.8774e-08
-2.23413e-06
-7.11556e-08
-2.1968e-06
-7.34554e-08
-2.15838e-06
-7.56857e-08
-2.11892e-06
-7.78223e-08
-2.07846e-06
-7.98865e-08
-2.03706e-06
-8.18425e-08
-1.99475e-06
-8.37122e-08
-1.9516e-06
-8.54627e-08
-1.90762e-06
-8.71299e-08
-1.86286e-06
-8.86841e-08
-1.81731e-06
-9.01524e-08
-1.7711e-06
-9.15804e-08
-1.72438e-06
-9.2976e-08
-1.67713e-06
-9.42524e-08
-1.62935e-06
-9.53914e-08
-1.58107e-06
-9.63867e-08
-1.53233e-06
-9.72317e-08
-1.48321e-06
-9.79505e-08
-1.43376e-06
-9.85513e-08
-1.38405e-06
-9.9052e-08
-1.33411e-06
-9.94586e-08
-1.28399e-06
-9.97807e-08
-1.23374e-06
-1.00027e-07
-1.18337e-06
-1.00203e-07
-1.13293e-06
-1.00321e-07
-1.08244e-06
-1.0038e-07
-1.03193e-06
-1.00396e-07
-9.8141e-07
-1.00356e-07
-9.30914e-07
-1.0028e-07
-8.80444e-07
-1.00157e-07
-8.30028e-07
-1.00018e-07
-7.79656e-07
-9.98557e-08
-7.29341e-07
-9.97064e-08
-6.79059e-07
-9.95629e-08
-6.28809e-07
-9.94635e-08
-5.78555e-07
-9.93972e-08
-5.28282e-07
-9.9396e-08
-4.77952e-07
-9.9441e-08
-4.27544e-07
-9.95544e-08
-3.77026e-07
-9.97106e-08
-3.26376e-07
-9.99306e-08
-2.75562e-07
-1.00197e-07
-2.24559e-07
-1.00525e-07
-1.73343e-07
-1.00901e-07
-1.21885e-07
-1.01329e-07
-7.01903e-08
-1.01755e-07
-1.82937e-08
-1.0212e-07
3.36872e-08
-1.02319e-07
8.56454e-08
-1.02221e-07
1.37383e-07
-1.01527e-07
1.88455e-07
-9.98219e-08
2.38502e-07
-9.61023e-08
2.84285e-07
-8.90164e-08
-6.54245e-08
3.28773e-07
5.35078e-10
1.05428e-08
3.24596e-09
1.68831e-08
1.55118e-08
6.35231e-09
4.50862e-08
-2.16014e-08
9.19342e-08
-5.93565e-08
1.47971e-07
-9.48653e-08
2.03846e-07
-1.19997e-07
2.53403e-07
-1.32517e-07
2.94404e-07
-1.34095e-07
3.26904e-07
-1.27855e-07
3.52319e-07
-1.16753e-07
3.72038e-07
-1.02993e-07
3.87324e-07
-8.80008e-08
3.98966e-07
-7.26056e-08
4.07591e-07
-5.72524e-08
4.13534e-07
-4.21647e-08
4.17116e-07
-2.7443e-08
4.18541e-07
-1.31331e-08
4.18078e-07
7.43583e-10
4.16049e-07
1.4196e-08
4.1279e-07
2.73016e-08
4.08473e-07
4.00952e-08
4.02994e-07
5.25384e-08
3.95977e-07
6.44459e-08
3.86663e-07
7.54236e-08
3.74148e-07
8.48328e-08
3.57485e-07
9.17808e-08
3.36227e-07
9.52028e-08
3.10704e-07
9.40789e-08
2.82465e-07
8.76905e-08
2.5403e-07
7.57942e-08
2.28442e-07
5.86745e-08
2.08277e-07
3.71377e-08
1.95085e-07
1.25386e-08
1.88801e-07
-1.28857e-08
1.85658e-07
-3.40519e-08
1.78439e-07
-4.36682e-08
1.62556e-07
-3.89321e-08
1.37326e-07
-2.25282e-08
1.03775e-07
7.5505e-10
6.13245e-08
2.81357e-08
6.30809e-09
5.92434e-08
-6.82972e-08
9.27909e-08
-1.67141e-07
1.29236e-07
-2.89117e-07
1.69999e-07
-4.29294e-07
2.1299e-07
-5.79274e-07
2.54838e-07
-7.31242e-07
2.92658e-07
-8.80237e-07
3.23952e-07
-1.02088e-06
3.47458e-07
-1.14967e-06
3.63074e-07
-1.26533e-06
3.70529e-07
-1.36691e-06
3.70343e-07
-1.45422e-06
3.63316e-07
-1.52842e-06
3.50565e-07
-1.59159e-06
3.33472e-07
-1.64638e-06
3.13542e-07
-1.69499e-06
2.9226e-07
-1.73914e-06
2.70799e-07
-1.78045e-06
2.49929e-07
-1.81983e-06
2.30324e-07
-1.85755e-06
2.12479e-07
-1.89392e-06
1.96386e-07
-1.92946e-06
1.81949e-07
-1.96421e-06
1.69122e-07
-1.99801e-06
1.57827e-07
-2.03092e-06
1.47831e-07
-2.06291e-06
1.38975e-07
-2.09395e-06
1.31083e-07
-2.12402e-06
1.23993e-07
-2.1531e-06
1.17569e-07
-2.18119e-06
1.1169e-07
-2.20826e-06
1.06261e-07
-2.23433e-06
1.01195e-07
-2.25938e-06
9.64282e-08
-2.28343e-06
9.19036e-08
-2.30645e-06
8.75808e-08
-2.32846e-06
8.34221e-08
-2.34944e-06
7.94008e-08
-2.36942e-06
7.54902e-08
-2.38837e-06
7.16747e-08
-2.40632e-06
6.79346e-08
-2.42324e-06
6.42587e-08
-2.43917e-06
6.06322e-08
-2.45409e-06
5.70503e-08
-2.468e-06
5.3502e-08
-2.4809e-06
4.9983e-08
-2.49276e-06
4.64834e-08
-2.50355e-06
4.2992e-08
-2.51329e-06
3.94961e-08
-2.52202e-06
3.59794e-08
-2.52977e-06
3.24311e-08
-2.53649e-06
2.88542e-08
-2.54218e-06
2.52372e-08
-2.54682e-06
2.15847e-08
-2.55041e-06
1.78849e-08
-2.55294e-06
1.41438e-08
-2.55442e-06
1.03567e-08
-2.55484e-06
6.53659e-09
-2.5542e-06
2.68938e-09
-2.55246e-06
-1.18038e-09
-2.54954e-06
-5.08379e-09
-2.54541e-06
-9.05388e-09
-2.54002e-06
-1.30915e-08
-2.53332e-06
-1.71861e-08
-2.52528e-06
-2.13171e-08
-2.51589e-06
-2.54873e-08
-2.50512e-06
-2.96852e-08
-2.49297e-06
-3.3914e-08
-2.47943e-06
-3.81638e-08
-2.4645e-06
-4.2434e-08
-2.44817e-06
-4.67146e-08
-2.43045e-06
-5.10007e-08
-2.41133e-06
-5.5282e-08
-2.39082e-06
-5.95504e-08
-2.36893e-06
-6.37984e-08
-2.34567e-06
-6.80229e-08
-2.32106e-06
-7.22214e-08
-2.29512e-06
-7.63819e-08
-2.26785e-06
-8.04873e-08
-2.23925e-06
-8.45176e-08
-2.20936e-06
-8.84661e-08
-2.17819e-06
-9.23276e-08
-2.1458e-06
-9.61118e-08
-2.11221e-06
-9.98091e-08
-2.07747e-06
-1.03419e-07
-2.0416e-06
-1.06925e-07
-2.00466e-06
-1.10326e-07
-1.96665e-06
-1.13607e-07
-1.92764e-06
-1.16769e-07
-1.88766e-06
-1.19799e-07
-1.84676e-06
-1.22695e-07
-1.80497e-06
-1.25446e-07
-1.76236e-06
-1.2805e-07
-1.71896e-06
-1.30512e-07
-1.67481e-06
-1.32837e-07
-1.62996e-06
-1.35032e-07
-1.5845e-06
-1.37121e-07
-1.53852e-06
-1.39099e-07
-1.49203e-06
-1.40919e-07
-1.44504e-06
-1.42558e-07
-1.39758e-06
-1.43991e-07
-1.3497e-06
-1.45228e-07
-1.30146e-06
-1.46279e-07
-1.25291e-06
-1.47169e-07
-1.20411e-06
-1.47908e-07
-1.1551e-06
-1.48513e-07
-1.10592e-06
-1.48993e-07
-1.05661e-06
-1.49364e-07
-1.0072e-06
-1.49633e-07
-9.5771e-07
-1.49819e-07
-9.0817e-07
-1.49925e-07
-8.58599e-07
-1.49966e-07
-8.09013e-07
-1.49939e-07
-7.59429e-07
-1.49856e-07
-7.0986e-07
-1.49719e-07
-6.60313e-07
-1.49551e-07
-6.10793e-07
-1.49365e-07
-5.61292e-07
-1.4919e-07
-5.11803e-07
-1.49039e-07
-4.62305e-07
-1.48943e-07
-4.12776e-07
-1.48913e-07
-3.63187e-07
-1.48967e-07
-3.1351e-07
-1.49107e-07
-2.63713e-07
-1.49338e-07
-2.1377e-07
-1.49648e-07
-1.63649e-07
-1.50042e-07
-1.13327e-07
-1.50519e-07
-6.27704e-08
-1.51078e-07
-1.19684e-08
-1.5171e-07
3.9096e-08
-1.52395e-07
9.04306e-08
-1.53102e-07
1.42056e-07
-1.53753e-07
1.93935e-07
-1.54215e-07
2.45981e-07
-1.54276e-07
2.98017e-07
-1.53578e-07
3.49757e-07
-1.51567e-07
4.00866e-07
-1.47223e-07
4.50443e-07
-1.38602e-07
-1.16616e-07
5.01612e-07
-2.81614e-10
1.07452e-08
1.0507e-08
5.89845e-09
4.57025e-08
-2.89128e-08
1.03484e-07
-7.94764e-08
1.68851e-07
-1.24739e-07
2.27515e-07
-1.53587e-07
2.72788e-07
-1.65279e-07
3.04285e-07
-1.64061e-07
3.25032e-07
-1.54846e-07
3.38462e-07
-1.41325e-07
3.47432e-07
-1.25725e-07
3.5364e-07
-1.09232e-07
3.58096e-07
-9.24554e-08
3.61177e-07
-7.57086e-08
3.63094e-07
-5.91654e-08
3.63847e-07
-4.29318e-08
3.6349e-07
-2.70817e-08
3.62018e-07
-1.16719e-08
3.59517e-07
3.24318e-09
3.56083e-07
1.76264e-08
3.51904e-07
3.14715e-08
3.47226e-07
4.47644e-08
3.4227e-07
5.74776e-08
3.37179e-07
6.95236e-08
3.31857e-07
8.0711e-08
3.25995e-07
9.06771e-08
3.18919e-07
9.88145e-08
3.09855e-07
1.04243e-07
2.98048e-07
1.05839e-07
2.83293e-07
1.0242e-07
2.65915e-07
9.31237e-08
2.4706e-07
7.74916e-08
2.28104e-07
5.60401e-08
2.09677e-07
3.09323e-08
1.88722e-07
8.00665e-09
1.58532e-07
-3.87286e-09
1.15772e-07
-9.45575e-10
6.18194e-08
1.50287e-08
-3.12531e-09
4.2391e-08
-8.15132e-08
7.9153e-08
-1.75805e-07
1.22417e-07
-2.86178e-07
1.69621e-07
-4.11552e-07
2.18159e-07
-5.48142e-07
2.65832e-07
-6.89105e-07
3.10955e-07
-8.27904e-07
3.51799e-07
-9.58805e-07
3.85734e-07
-1.07709e-06
4.10954e-07
-1.18071e-06
4.27575e-07
-1.26909e-06
4.35865e-07
-1.34251e-06
4.36504e-07
-1.40245e-06
4.30515e-07
-1.45103e-06
4.18972e-07
-1.49074e-06
4.03086e-07
-1.52422e-06
3.84097e-07
-1.55386e-06
3.6318e-07
-1.58163e-06
3.41377e-07
-1.60885e-06
3.19552e-07
-1.63633e-06
2.98346e-07
-1.66452e-06
2.78182e-07
-1.69352e-06
2.59374e-07
-1.72312e-06
2.42123e-07
-1.75312e-06
2.26427e-07
-1.78336e-06
2.12221e-07
-1.81363e-06
1.99426e-07
-1.84371e-06
1.87928e-07
-1.87343e-06
1.77572e-07
-1.90266e-06
1.6821e-07
-1.93126e-06
1.59701e-07
-1.95916e-06
1.51908e-07
-1.98629e-06
1.44715e-07
-2.01261e-06
1.38018e-07
-2.03806e-06
1.31731e-07
-2.06264e-06
1.2578e-07
-2.0863e-06
1.20105e-07
-2.10905e-06
1.14656e-07
-2.13086e-06
1.09397e-07
-2.15173e-06
1.04294e-07
-2.17164e-06
9.93208e-08
-2.1906e-06
9.44562e-08
-2.2086e-06
8.96829e-08
-2.22564e-06
8.49848e-08
-2.24172e-06
8.03489e-08
-2.25684e-06
7.57636e-08
-2.27101e-06
7.12201e-08
-2.28421e-06
6.67096e-08
-2.29645e-06
6.22248e-08
-2.3077e-06
5.77558e-08
-2.31794e-06
5.32942e-08
-2.32718e-06
4.88181e-08
-2.33546e-06
4.43213e-08
-2.34278e-06
3.97871e-08
-2.34912e-06
3.52136e-08
-2.35445e-06
3.05919e-08
-2.35877e-06
2.59213e-08
-2.36207e-06
2.11924e-08
-2.36432e-06
1.64068e-08
-2.36551e-06
1.15591e-08
-2.36562e-06
6.65506e-09
-2.36462e-06
1.69222e-09
-2.36247e-06
-3.33506e-09
-2.35915e-06
-8.43717e-09
-2.35461e-06
-1.3632e-08
-2.34884e-06
-1.89104e-08
-2.3418e-06
-2.42665e-08
-2.33346e-06
-2.96784e-08
-2.32382e-06
-3.51476e-08
-2.31285e-06
-4.06575e-08
-2.30055e-06
-4.62117e-08
-2.28691e-06
-5.17938e-08
-2.27192e-06
-5.74047e-08
-2.25558e-06
-6.30277e-08
-2.2379e-06
-6.86598e-08
-2.21886e-06
-7.42841e-08
-2.19848e-06
-7.9894e-08
-2.17676e-06
-8.54762e-08
-2.15372e-06
-9.10284e-08
-2.12937e-06
-9.65398e-08