/*--------------------------------*- C++ -*----------------------------------*\
  =========                 |
  \\      /  F ield         | OpenFOAM: The Open Source CFD Toolbox
   \\    /   O peration     | Website:  https://openfoam.org
    \\  /    A nd           | Version:  13
     \\/     M anipulation  |
\*---------------------------------------------------------------------------*/
FoamFile
{
    format      ascii;
    class       volVectorField;
    location    "1200";
    object      U;
}
// * * * * * * * * * * * * * * * * * * * * * * * * * * * * * * * * * * * * * //

dimensions      [0 1 -1 0 0 0 0];

internalField   nonuniform List<vector> 
12225
(
(9.80307 0.0486623 0)
(9.3788 0.0942901 0)
(8.96407 0.100362 0)
(8.58251 0.0907074 0)
(8.24191 0.0789796 0)
(7.94551 0.073574 0)
(7.69156 0.0816672 0)
(7.46842 0.0721742 0)
(7.29218 0.0531256 0)
(7.15344 0.0493277 0)
(7.03784 0.0427325 0)
(6.94317 0.0381795 0)
(6.86046 0.0302361 0)
(6.79305 0.00931353 0)
(6.74295 -0.0122102 0)
(6.70822 -0.0215623 0)
(6.67989 -0.0100101 0)
(6.6727 0.00520532 0)
(10.059 0.0513369 0)
(10.2094 0.0804286 0)
(10.2877 0.079029 0)
(10.3083 0.0780915 0)
(10.299 0.0770601 0)
(10.2646 0.0723254 0)
(10.2045 0.0653196 0)
(10.1128 0.0607759 0)
(10.026 0.0571775 0)
(9.92453 0.0517656 0)
(9.82264 0.0473537 0)
(9.72515 0.0438714 0)
(9.63376 0.0412904 0)
(9.54966 0.0405351 0)
(9.47631 0.0383011 0)
(9.41212 0.0338184 0)
(9.3533 0.0248477 0)
(9.28616 0.0131349 0)
(10.0215 0.0409826 0)
(10.0736 0.0671339 0)
(10.1228 0.0703287 0)
(10.157 0.0738014 0)
(10.1856 0.0781062 0)
(10.2094 0.0810835 0)
(10.2285 0.0829327 0)
(10.2406 0.0810615 0)
(10.2446 0.076651 0)
(10.2407 0.0728026 0)
(10.2323 0.0689849 0)
(10.2207 0.0660215 0)
(10.2076 0.0621357 0)
(10.1923 0.0561985 0)
(10.1735 0.0505288 0)
(10.1532 0.0465072 0)
(10.1334 0.0424332 0)
(10.1118 0.0359083 0)
(10.0097 0.0315342 0)
(10.042 0.0550735 0)
(10.0738 0.0628514 0)
(10.0948 0.0673932 0)
(10.1123 0.0707464 0)
(10.129 0.0727633 0)
(10.1457 0.0741647 0)
(10.1613 0.0730126 0)
(10.174 0.070306 0)
(10.1842 0.0682412 0)
(10.1927 0.065627 0)
(10.1999 0.0626544 0)
(10.2063 0.0590146 0)
(10.2111 0.0541432 0)
(10.2138 0.0490273 0)
(10.2152 0.0449385 0)
(10.2167 0.0414445 0)
(10.2178 0.0368717 0)
(10.0048 0.0245986 0)
(10.03 0.048127 0)
(10.0551 0.0576769 0)
(10.0725 0.0623716 0)
(10.0867 0.0658381 0)
(10.1005 0.0680961 0)
(10.1141 0.0693765 0)
(10.127 0.0687721 0)
(10.1384 0.0669345 0)
(10.1484 0.0650167 0)
(10.1575 0.0626316 0)
(10.1659 0.0599698 0)
(10.1738 0.0567024 0)
(10.1806 0.0524943 0)
(10.1858 0.0480029 0)
(10.19 0.0440151 0)
(10.1938 0.0402895 0)
(10.1972 0.0361048 0)
(10.0032 0.0196978 0)
(10.0226 0.0416849 0)
(10.0435 0.0521868 0)
(10.0595 0.0575451 0)
(10.0726 0.0614271 0)
(10.0853 0.063929 0)
(10.0977 0.0651143 0)
(10.1092 0.0646879 0)
(10.1195 0.0631887 0)
(10.1289 0.0613396 0)
(10.1375 0.0590854 0)
(10.1455 0.056523 0)
(10.153 0.053402 0)
(10.1596 0.049569 0)
(10.165 0.0455096 0)
(10.1695 0.0417128 0)
(10.1735 0.0380193 0)
(10.177 0.0342665 0)
(10.0023 0.0161827 0)
(10.0172 0.0360999 0)
(10.0349 0.0468524 0)
(10.0497 0.0527878 0)
(10.0622 0.0569607 0)
(10.0742 0.0596106 0)
(10.0859 0.0608022 0)
(10.0967 0.0605617 0)
(10.1065 0.0593557 0)
(10.1154 0.0576649 0)
(10.1236 0.0555488 0)
(10.1313 0.0530813 0)
(10.1383 0.0501284 0)
(10.1446 0.0466533 0)
(10.1499 0.0430085 0)
(10.1545 0.0394896 0)
(10.1585 0.0360324 0)
(10.1621 0.0326399 0)
(10.0017 0.0133184 0)
(10.0131 0.0311889 0)
(10.0282 0.0419559 0)
(10.0418 0.0481419 0)
(10.0536 0.0523897 0)
(10.065 0.055115 0)
(10.0761 0.0563734 0)
(10.0864 0.0563279 0)
(10.0959 0.0553747 0)
(10.1045 0.0538565 0)
(10.1124 0.0518847 0)
(10.1198 0.0495363 0)
(10.1265 0.0467624 0)
(10.1325 0.0435986 0)
(10.1377 0.0402959 0)
(10.1423 0.0370304 0)
(10.1463 0.0337889 0)
(10.1499 0.0306439 0)
(10.0012 0.0109915 0)
(10.0101 0.026856 0)
(10.0228 0.0373599 0)
(10.0352 0.0435663 0)
(10.0463 0.0477816 0)
(10.057 0.0505299 0)
(10.0675 0.0518504 0)
(10.0774 0.0519582 0)
(10.0865 0.0512029 0)
(10.0949 0.0498597 0)
(10.1026 0.0480513 0)
(10.1098 0.0458575 0)
(10.1163 0.0432957 0)
(10.1221 0.0404268 0)
(10.1272 0.0374158 0)
(10.1318 0.0343834 0)
(10.1357 0.0313604 0)
(10.1394 0.0284343 0)
(10.0009 0.00910977 0)
(10.0078 0.0229873 0)
(10.0186 0.0329656 0)
(10.0297 0.0390944 0)
(10.0401 0.0432165 0)
(10.0501 0.0459212 0)
(10.06 0.0472667 0)
(10.0694 0.0474825 0)
(10.0781 0.0468813 0)
(10.0862 0.0456949 0)
(10.0937 0.0440512 0)
(10.1007 0.0420332 0)
(10.107 0.0396875 0)
(10.1127 0.0370816 0)
(10.1177 0.0343368 0)
(10.1222 0.0315508 0)
(10.1262 0.0287609 0)
(10.1299 0.0260311 0)
(10.0007 0.00757659 0)
(10.0061 0.0195487 0)
(10.0152 0.0288089 0)
(10.0252 0.0347397 0)
(10.0348 0.0386938 0)
(10.0442 0.0412949 0)
(10.0534 0.0426339 0)
(10.0623 0.0429272 0)
(10.0706 0.042449 0)
(10.0784 0.0413987 0)
(10.0856 0.0399047 0)
(10.0923 0.0380578 0)
(10.0984 0.0359187 0)
(10.104 0.0335627 0)
(10.109 0.0310748 0)
(10.1135 0.0285282 0)
(10.1174 0.0259602 0)
(10.1211 0.0234396 0)
(10.0005 0.00637237 0)
(10.005 0.0167773 0)
(10.0128 0.0252484 0)
(10.0218 0.0308596 0)
(10.0307 0.0345785 0)
(10.0395 0.0370224 0)
(10.0482 0.0383056 0)
(10.0566 0.0386272 0)
(10.0646 0.0382268 0)
(10.072 0.037285 0)
(10.0789 0.0359265 0)
(10.0853 0.0342362 0)
(10.0913 0.0322911 0)
(10.0967 0.0301508 0)
(10.1016 0.0278954 0)
(10.106 0.0255715 0)
(10.1099 0.0232244 0)
(10.1136 0.0208912 0)
(10.0004 0.00535834 0)
(10.0041 0.0141865 0)
(10.0108 0.0217977 0)
(10.0188 0.027029 0)
(10.0271 0.0305088 0)
(10.0354 0.0328106 0)
(10.0436 0.0340551 0)
(10.0515 0.0344126 0)
(10.0591 0.0340888 0)
(10.0662 0.0332485 0)
(10.0729 0.0320052 0)
(10.0791 0.0304502 0)
(10.0848 0.0286588 0)
(10.0901 0.026695 0)
(10.0948 0.0246244 0)
(10.0992 0.0224946 0)
(10.1031 0.020332 0)
(10.1067 0.018198 0)
(10.0004 0.00438577 0)
(10.0033 0.0116138 0)
(10.009 0.0181558 0)
(10.0161 0.022824 0)
(10.0236 0.0259422 0)
(10.0313 0.0280066 0)
(10.0389 0.0291416 0)
(10.0464 0.0294907 0)
(10.0536 0.0292223 0)
(10.0604 0.0284802 0)
(10.0668 0.0273635 0)
(10.0727 0.0259684 0)
(10.0782 0.0243509 0)
(10.0833 0.0225905 0)
(10.0879 0.020723 0)
(10.0921 0.01881 0)
(10.0959 0.0168615 0)
(10.0995 0.0149417 0)
(10.0003 0.00342726 0)
(10.0027 0.00903357 0)
(10.0074 0.0143245 0)
(10.0136 0.0182393 0)
(10.0204 0.0208623 0)
(10.0275 0.0225928 0)
(10.0346 0.0235453 0)
(10.0415 0.0238346 0)
(10.0483 0.0235933 0)
(10.0547 0.0229329 0)
(10.0608 0.0219543 0)
(10.0664 0.0207219 0)
(10.0717 0.0193109 0)
(10.0765 0.0177605 0)
(10.081 0.0161325 0)
(10.0851 0.0144474 0)
(10.0888 0.0127501 0)
(10.0922 0.0110585 0)
(10.0003 0.00246992 0)
(10.0022 0.0064377 0)
(10.0062 0.0103152 0)
(10.0116 0.0132819 0)
(10.0177 0.0152615 0)
(10.0241 0.0165485 0)
(10.0306 0.017232 0)
(10.0371 0.0173968 0)
(10.0434 0.017138 0)
(10.0495 0.016543 0)
(10.0552 0.015689 0)
(10.0606 0.0146326 0)
(10.0656 0.0134305 0)
(10.0702 0.0121184 0)
(10.0745 0.0107399 0)
(10.0784 0.00932089 0)
(10.082 0.0078857 0)
(10.0854 0.00646791 0)
(10.0002 0.00149507 0)
(10.0019 0.00378186 0)
(10.0053 0.00610188 0)
(10.01 0.00792725 0)
(10.0155 0.00910044 0)
(10.0214 0.00982001 0)
(10.0274 0.0101345 0)
(10.0334 0.0101003 0)
(10.0393 0.0097721 0)
(10.045 0.00921359 0)
(10.0504 0.00846759 0)
(10.0556 0.00758828 0)
(10.0603 0.0065958 0)
(10.0648 0.00553737 0)
(10.0689 0.0044211 0)
(10.0727 0.0032901 0)
(10.0762 0.00213623 0)
(10.0794 0.00101167 0)
(10.0002 0.000463584 0)
(10.0017 0.000955362 0)
(10.0048 0.00156163 0)
(10.0091 0.00205227 0)
(10.0141 0.00224384 0)
(10.0196 0.00225413 0)
(10.0252 0.00208978 0)
(10.0309 0.00176906 0)
(10.0365 0.00131355 0)
(10.042 0.000748837 0)
(10.0471 9.58883e-05 0)
(10.052 -0.000624746 0)
(10.0566 -0.00139768 0)
(10.0609 -0.00220595 0)
(10.0649 -0.00303704 0)
(10.0686 -0.00387595 0)
(10.072 -0.0047196 0)
(10.0752 -0.00554315 0)
(10.0002 -0.000718139 0)
(10.0017 -0.00227698 0)
(10.0047 -0.00361386 0)
(10.009 -0.00467084 0)
(10.0139 -0.00563206 0)
(10.0193 -0.00646503 0)
(10.0249 -0.00720957 0)
(10.0304 -0.00788842 0)
(10.0359 -0.0085193 0)
(10.0412 -0.00911503 0)
(10.0463 -0.00968857 0)
(10.0511 -0.0102453 0)
(10.0556 -0.0107928 0)
(10.0598 -0.0113307 0)
(10.0638 -0.0118632 0)
(10.0674 -0.0123857 0)
(10.0708 -0.0129055 0)
(10.0739 -0.0134066 0)
(10.0002 -0.00191796 0)
(10.002 -0.0055467 0)
(10.0054 -0.008787 0)
(10.0101 -0.0113193 0)
(10.0155 -0.0133534 0)
(10.0212 -0.0149578 0)
(10.027 -0.0162204 0)
(10.0328 -0.0172071 0)
(10.0385 -0.0179705 0)
(10.044 -0.0185685 0)
(10.0491 -0.0190392 0)
(10.054 -0.0194228 0)
(10.0586 -0.0197371 0)
(10.0628 -0.0200117 0)
(10.0668 -0.020251 0)
(10.0704 -0.0204755 0)
(10.0738 -0.020686 0)
(10.0769 -0.0208919 0)
(10.0003 -0.00305822 0)
(10.0024 -0.00864371 0)
(10.0065 -0.0135516 0)
(10.012 -0.017256 0)
(10.018 -0.0200945 0)
(10.0243 -0.0222514 0)
(10.0306 -0.0238654 0)
(10.0368 -0.0250238 0)
(10.0428 -0.0258228 0)
(10.0485 -0.0263567 0)
(10.0539 -0.0266883 0)
(10.0589 -0.0268805 0)
(10.0636 -0.0269686 0)
(10.0679 -0.0269982 0)
(10.0719 -0.0269835 0)
(10.0756 -0.0269511 0)
(10.0789 -0.0269062 0)
(10.0821 -0.0268558 0)
(10.0003 -0.00431742 0)
(10.0031 -0.0120955 0)
(10.0084 -0.0186065 0)
(10.0149 -0.0232672 0)
(10.0218 -0.0267027 0)
(10.0287 -0.0292739 0)
(10.0355 -0.0311136 0)
(10.0422 -0.0323407 0)
(10.0485 -0.0330933 0)
(10.0545 -0.0334876 0)
(10.0601 -0.0336257 0)
(10.0653 -0.033573 0)
(10.07 -0.0334024 0)
(10.0744 -0.0331533 0)
(10.0784 -0.0328796 0)
(10.0821 -0.0325905 0)
(10.0854 -0.0323251 0)
(10.0886 -0.0320773 0)
(10.0005 -0.00579248 0)
(10.0041 -0.016147 0)
(10.0112 -0.0239859 0)
(10.019 -0.0292687 0)
(10.0267 -0.0330765 0)
(10.0342 -0.0358681 0)
(10.0415 -0.0377812 0)
(10.0486 -0.0389672 0)
(10.0553 -0.0396033 0)
(10.0616 -0.0398278 0)
(10.0673 -0.0397367 0)
(10.0726 -0.0394154 0)
(10.0774 -0.038933 0)
(10.0817 -0.0383612 0)
(10.0857 -0.0377492 0)
(10.0893 -0.0371343 0)
(10.0925 -0.0365596 0)
(10.0955 -0.0360248 0)
(10.0009 -0.00742547 0)
(10.0056 -0.0209422 0)
(10.0152 -0.029442 0)
(10.0243 -0.0348673 0)
(10.0327 -0.0388606 0)
(10.0407 -0.0418299 0)
(10.0485 -0.0437978 0)
(10.056 -0.0449539 0)
(10.063 -0.04551 0)
(10.0695 -0.0456326 0)
(10.0754 -0.0454312 0)
(10.0808 -0.0449662 0)
(10.0857 -0.0443116 0)
(10.0901 -0.0435432 0)
(10.094 -0.0426986 0)
(10.0975 -0.04183 0)
(10.1007 -0.0409535 0)
(10.1035 -0.0400274 0)
(10.0009 -0.00932114 0)
(10.0073 -0.0264929 0)
(10.0199 -0.0350675 0)
(10.0302 -0.0404452 0)
(10.0394 -0.0446145 0)
(10.0481 -0.0474981 0)
(10.0564 -0.0490995 0)
(10.0642 -0.0498715 0)
(10.0714 -0.0501185 0)
(10.078 -0.0499729 0)
(10.0841 -0.0495213 0)
(10.0896 -0.0488571 0)
(10.0946 -0.0480476 0)
(10.0991 -0.0471605 0)
(10.1032 -0.0462535 0)
(10.1068 -0.0453377 0)
(10.11 -0.0444219 0)
(10.1128 -0.0434034 0)
(10.0014 -0.0117805 0)
(10.0113 -0.0325582 0)
(10.0248 -0.0415717 0)
(10.0364 -0.0471933 0)
(10.0465 -0.0519026 0)
(10.056 -0.0549011 0)
(10.0649 -0.0561679 0)
(10.0731 -0.0563169 0)
(10.0806 -0.0558007 0)
(10.0874 -0.0549781 0)
(10.0937 -0.053913 0)
(10.0994 -0.0526707 0)
(10.1046 -0.0513469 0)
(10.1092 -0.0500448 0)
(10.1133 -0.0488353 0)
(10.1171 -0.0477403 0)
(10.1204 -0.0467484 0)
(10.1237 -0.0459358 0)
(10.0021 -0.0169726 0)
(10.018 -0.0358587 0)
(10.0303 -0.0438252 0)
(10.044 -0.0495141 0)
(10.0546 -0.0546034 0)
(10.0654 -0.0582783 0)
(10.0763 -0.0604966 0)
(10.0865 -0.0613268 0)
(10.096 -0.0609755 0)
(10.1049 -0.0599502 0)
(10.1134 -0.0585216 0)
(10.1214 -0.056771 0)
(10.1288 -0.0548255 0)
(10.1356 -0.0528486 0)
(10.1418 -0.0509593 0)
(10.1476 -0.0492349 0)
(10.1529 -0.0476751 0)
(10.1579 -0.0466198 0)
(10.0025 -0.0254979 0)
(10.0322 -0.0434469 0)
(10.0509 -0.0498113 0)
(10.0769 -0.0543711 0)
(10.102 -0.0584601 0)
(10.1293 -0.0610344 0)
(10.1576 -0.0631204 0)
(10.1851 -0.0646485 0)
(10.2106 -0.065709 0)
(10.2335 -0.0661197 0)
(10.2539 -0.0658663 0)
(10.2717 -0.0650966 0)
(10.2869 -0.0639166 0)
(10.2998 -0.0624411 0)
(10.3106 -0.0608048 0)
(10.3194 -0.0591568 0)
(10.3267 -0.0575903 0)
(10.3326 -0.0567038 0)
(10.0533 -0.0390275 0)
(10.1766 -0.0667896 0)
(10.284 -0.0736992 0)
(10.3613 -0.0801631 0)
(10.4163 -0.0827868 0)
(10.4478 -0.0821856 0)
(10.4575 -0.0806065 0)
(10.4481 -0.0789064 0)
(10.4256 -0.0775527 0)
(10.3962 -0.0756529 0)
(10.3625 -0.0730744 0)
(10.3262 -0.0699983 0)
(10.2884 -0.0665593 0)
(10.2503 -0.0630386 0)
(10.2113 -0.0596757 0)
(10.1717 -0.0565366 0)
(10.132 -0.0537384 0)
(10.0929 -0.0519872 0)
(9.86698 -0.0349541 0)
(9.60381 -0.0739595 0)
(9.31652 -0.0888776 0)
(9.01247 -0.0946826 0)
(8.72373 -0.0926838 0)
(8.45951 -0.0861171 0)
(8.22274 -0.0777067 0)
(8.01508 -0.0694745 0)
(7.8322 -0.0627097 0)
(7.66859 -0.0565419 0)
(7.52172 -0.0504729 0)
(7.38975 -0.0446182 0)
(7.27221 -0.0390504 0)
(7.16769 -0.0335768 0)
(7.07626 -0.0283143 0)
(6.99644 -0.023601 0)
(6.92625 -0.0195116 0)
(6.8653 -0.0165739 0)
(-0.00253917 0.00710277 -7.95538e-19)
(-0.0122386 0.012081 9.20966e-19)
(-0.0253024 0.0134313 -6.36996e-19)
(-0.0397957 0.011843 -1.93835e-19)
(-0.0514568 0.00667981 2.97502e-19)
(-0.053154 -0.00209756 -7.41737e-20)
(-0.0400105 -0.0140145 -7.29991e-20)
(-0.0152579 -0.0270459 3.97104e-19)
(0.0181544 -0.0375347 -2.04478e-19)
(0.0572154 -0.0432745 4.72644e-20)
(0.0994919 -0.0446181 1.49403e-20)
(0.141618 -0.0426142 -1.58492e-19)
(0.180707 -0.0382511 2.18422e-19)
(0.214907 -0.0323151 2.20859e-19)
(0.24325 -0.0253938 1.88547e-20)
(0.26521 -0.017875 7.89623e-20)
(0.280475 -0.00997929 3.09281e-20)
(0.28894 -0.00174588 5.35784e-20)
(0.290329 0.00690018 7.98151e-20)
(0.283901 0.0156724 8.59041e-21)
(0.270169 0.0239324 -2.91602e-20)
(0.249661 0.0309072 2.47109e-19)
(0.223039 0.0358707 -3.29839e-20)
(0.191393 0.0381848 2.87378e-19)
(0.156225 0.0373256 -6.60446e-20)
(0.119495 0.0330384 2.87499e-19)
(0.0834805 0.0255354 1.71761e-19)
(0.0506284 0.0157621 1.37484e-19)
(0.0232017 0.00569799 -6.96415e-19)
(0.00262595 -0.00190598 -1.64641e-19)
(-0.0111055 -0.00554963 -1.18466e-18)
(-0.0198445 -0.00702556 6.33589e-19)
(-0.0243352 -0.00820539 4.43644e-19)
(-0.0234851 -0.0102747 -5.45337e-19)
(-0.0168846 -0.0137398 -8.65675e-19)
(-0.00312227 -0.0188168 -5.65323e-20)
(0.0180706 -0.0244555 2.45979e-19)
(0.0455459 -0.0288401 4.32796e-19)
(0.0755252 -0.0296254 2.33181e-19)
(0.10333 -0.0262207 4.50909e-19)
(0.124657 -0.0195754 1.60478e-19)
(0.137231 -0.0118174 4.03366e-20)
(0.141666 -0.00527238 -5.34243e-19)
(0.140392 -0.00142882 -1.10066e-19)
(0.136919 -0.000851426 2.28988e-19)
(0.133798 -0.0045561 1.1905e-20)
(0.131 -0.0130297 5.55566e-19)
(0.123849 -0.0232713 1.80246e-19)
(0.105494 -0.0256943 7.61824e-20)
(0.0691509 -0.0115522 -7.03449e-19)
(0.00898107 0.00839286 5.91154e-19)
(-0.079311 0.023866 3.60995e-20)
(-0.178291 0.0449815 3.10145e-19)
(-0.288958 0.0692221 1.7449e-19)
(-0.409986 0.0921113 5.34983e-20)
(-0.538032 0.107933 1.05688e-19)
(-0.670209 0.113713 1.26595e-19)
(-0.801644 0.113826 -1.2572e-19)
(-0.928672 0.110964 4.66158e-20)
(-1.0502 0.102772 5.00719e-20)
(-1.16494 0.0940342 -1.13434e-19)
(-1.27076 0.0885201 -7.07587e-20)
(-1.36931 0.0830545 5.3375e-20)
(-1.46052 0.0735373 6.28047e-20)
(-1.54385 0.0660968 1.72454e-20)
(-1.62073 0.0614021 -6.52873e-20)
(-1.69205 0.0557404 7.10057e-21)
(-1.75803 0.0513325 3.33245e-21)
(-1.81948 0.0473317 1.65252e-20)
(-1.8769 0.0438418 8.03068e-20)
(-1.93079 0.0407937 -3.98246e-21)
(-1.98154 0.0380967 -5.76186e-20)
(-2.02952 0.0357185 6.1892e-20)
(-2.07502 0.0335811 2.24978e-20)
(-2.11826 0.0316669 -3.63243e-20)
(-2.15946 0.0299145 3.01347e-20)
(-2.19877 0.0283195 -4.63061e-21)
(-2.23631 0.0268359 5.79431e-20)
(-2.27218 0.0254669 2.66618e-20)
(-2.30646 0.0241717 -3.9333e-20)
(-2.33925 0.0229603 -1.12257e-20)
(-2.37058 0.021802 2.21938e-21)
(-2.40051 0.0207079 4.40588e-20)
(-2.42909 0.0196481 5.46556e-20)
(-2.45635 0.0186378 4.80772e-20)
(-2.48232 0.0176527 -4.87561e-20)
(-2.50701 0.0167053 1.03636e-19)
(-2.53043 0.0157696 -4.1112e-21)
(-2.55256 0.0148504 7.41581e-20)
(-2.57339 0.0139361 -1.04958e-19)
(-2.59299 0.0130097 -5.62482e-20)
(-2.61141 0.0120671 4.72462e-20)
(-2.62861 0.0110994 6.86456e-20)
(-2.64454 0.0101004 -1.04053e-20)
(-2.65916 0.00905855 -6.44131e-20)
(-2.67243 0.00796874 -6.39191e-20)
(-2.68429 0.0068258 6.55272e-20)
(-2.6947 0.00563929 -3.52835e-20)
(-2.7036 0.0044306 -8.41304e-20)
(-2.7109 0.00324303 -3.66531e-20)
(-2.71651 0.00212187 9.04659e-20)
(-2.72037 0.00109579 4.54627e-20)
(-2.72242 0.000228196 6.7993e-20)
(-2.72321 -0.000534461 -4.16022e-20)
(-2.72264 -0.00127311 1.32621e-20)
(-2.72073 -0.00200775 4.6108e-21)
(-2.71746 -0.00273296 -8.45996e-21)
(-2.71282 -0.00346278 -1.83413e-20)
(-2.7068 -0.00418497 -2.75582e-20)
(-2.69939 -0.00491136 -4.48466e-20)
(-2.69057 -0.0056304 -6.14464e-20)
(-2.68035 -0.0063512 3.25223e-20)
(-2.66871 -0.00706453 -4.53711e-20)
(-2.65565 -0.00777629 -4.4345e-20)
(-2.64116 -0.00848062 7.8064e-20)
(-2.62525 -0.00918049 -4.60599e-21)
(-2.60792 -0.0098744 -4.99276e-20)
(-2.58919 -0.0105623 -5.19427e-20)
(-2.56907 -0.0112432 4.78367e-20)
(-2.54756 -0.0119104 3.56922e-21)
(-2.52465 -0.012564 1.42889e-20)
(-2.50034 -0.013198 -9.32386e-21)
(-2.47465 -0.0138238 -2.71416e-20)
(-2.44764 -0.0144307 2.28419e-20)
(-2.41933 -0.0150352 -2.00495e-20)
(-2.38975 -0.0156156 1.80001e-20)
(-2.35894 -0.0161886 2.41635e-20)
(-2.32692 -0.016726 -8.47909e-21)
(-2.29374 -0.0172487 2.31467e-20)
(-2.25941 -0.0177263 -1.99567e-20)
(-2.224 -0.0182194 4.68274e-20)
(-2.1875 -0.0186491 -3.91964e-21)
(-2.15002 -0.0190558 -4.52143e-20)
(-2.11154 -0.0193656 9.95111e-21)
(-2.0722 -0.0195779 -2.13207e-21)
(-2.032 -0.0195941 8.97057e-21)
(-1.99111 -0.0193921 7.53635e-21)
(-1.94952 -0.0193888 -1.70618e-21)
(-1.90718 -0.0197095 1.69942e-21)
(-1.86414 -0.0200028 -9.49005e-22)
(-1.82044 -0.0202528 2.64547e-20)
(-1.77607 -0.0204578 2.96671e-20)
(-1.73108 -0.0206277 -1.85097e-20)
(-1.68552 -0.0207603 -2.21444e-20)
(-1.63948 -0.0208678 -4.27926e-20)
(-1.593 -0.0209458 -6.61396e-20)
(-1.54614 -0.0210036 -5.22756e-20)
(-1.49895 -0.0210365 -8.78987e-20)
(-1.45145 -0.0210529 4.48311e-20)
(-1.40369 -0.0210488 4.28034e-20)
(-1.35571 -0.0210319 7.54627e-20)
(-1.30752 -0.0209988 5.70878e-20)
(-1.25916 -0.0209554 1.64695e-19)
(-1.21065 -0.0208991 1.12912e-20)
(-1.16202 -0.0208353 7.31698e-21)
(-1.11329 -0.0207647 -1.28723e-19)
(-1.06448 -0.0206934 2.05363e-19)
(-1.01559 -0.0206251 -1.22862e-19)
(-0.966634 -0.0205652 1.71815e-20)
(-0.9176 -0.0205194 6.24517e-20)
(-0.868476 -0.0204913 2.28783e-20)
(-0.819244 -0.0204868 5.84366e-20)
(-0.769878 -0.0205063 2.77249e-19)
(-0.720351 -0.0205556 1.3684e-19)
(-0.670633 -0.0206322 6.46549e-20)
(-0.6207 -0.0207419 9.15794e-20)
(-0.570522 -0.0208825 2.58537e-19)
(-0.520074 -0.0210622 -1.13107e-20)
(-0.469326 -0.0212774 2.9778e-19)
(-0.418249 -0.0215367 4.29569e-19)
(-0.366813 -0.0218327 4.17892e-19)
(-0.315005 -0.0221634 -1.52171e-20)
(-0.262826 -0.0225155 3.94202e-20)
(-0.21031 -0.0228958 -9.33156e-20)
(-0.15757 -0.0232582 -1.17233e-18)
(-0.104875 -0.0234768 5.81769e-19)
(-0.0526387 -0.0233971 4.29998e-19)
(-0.00346433 -0.0225365 -8.69146e-19)
(0.0511806 -0.0203041 -8.23263e-19)
(0.0661398 -0.00937187 1.20097e-18)
(3.79365e-05 0.0194275 2.22767e-18)
(-0.0063012 0.0345376 -1.74041e-18)
(-0.0126754 0.0365981 -7.3295e-19)
(-0.0148709 0.0289728 2.04005e-18)
(-0.00398201 0.00985436 4.62779e-19)
(0.0229908 -0.0238786 2.08045e-19)
(0.0593194 -0.0638715 -1.28202e-19)
(0.101895 -0.0984099 -4.64161e-19)
(0.147057 -0.121351 -2.5806e-20)
(0.191284 -0.131447 -3.24596e-19)
(0.232077 -0.130631 1.71212e-20)
(0.268277 -0.122013 -4.41892e-21)
(0.299409 -0.108446 9.79613e-20)
(0.325407 -0.0920851 1.3964e-20)
(0.346419 -0.0743704 -3.02856e-20)
(0.362719 -0.0561858 -2.52946e-19)
(0.374647 -0.0379645 -5.44501e-20)
(0.382461 -0.0199032 2.38162e-19)
(0.386698 -0.00203131 -2.79489e-19)
(0.387884 0.0156926 7.79404e-20)
(0.385711 0.0330576 7.06671e-21)
(0.379766 0.0496492 1.54821e-19)
(0.369485 0.0649027 1.82657e-19)
(0.354283 0.0779749 1.59875e-19)
(0.333717 0.0878237 2.15501e-19)
(0.307637 0.0933184 -1.2893e-19)
(0.276422 0.0934537 3.47e-20)
(0.241104 0.0877398 4.80662e-20)
(0.203433 0.076552 -2.08721e-19)
(0.165828 0.0612496 -1.70083e-19)
(0.131235 0.0436877 -3.30818e-19)
(0.102775 0.0253476 -1.24616e-19)
(0.0835338 0.00688576 -1.12381e-18)
(0.0745811 -0.0121251 5.207e-19)
(0.0779228 -0.0310567 -6.8085e-19)
(0.0913186 -0.049918 6.88094e-19)
(0.111485 -0.0666408 -5.47416e-19)
(0.132984 -0.0752677 1.26192e-19)
(0.149762 -0.0717358 2.79087e-19)
(0.158784 -0.0577644 -2.04353e-19)
(0.159365 -0.0382861 1.74298e-19)
(0.152025 -0.0189002 -7.69804e-20)
(0.137902 -0.00535615 -3.2452e-19)
(0.117609 0.00166503 -1.05213e-18)
(0.0871382 0.0063377 -8.47342e-19)
(0.0384438 0.0158535 1.22166e-20)
(-0.0370493 0.0400295 -1.14338e-18)
(-0.146046 0.0795911 -1.9716e-19)
(-0.271591 0.122906 4.7104e-19)
(-0.403806 0.165853 5.28508e-19)
(-0.54249 0.203173 9.91057e-20)
(-0.685338 0.231958 -3.57606e-20)
(-0.827417 0.253036 -3.2294e-20)
(-0.966424 0.265848 -9.32293e-20)
(-1.09866 0.270389 -6.56744e-20)
(-1.2215 0.267583 -1.60479e-19)
(-1.33338 0.258666 -1.78562e-19)
(-1.43362 0.245408 -3.83977e-20)
(-1.52271 0.22943 2.47328e-20)
(-1.60213 0.211855 -1.22593e-19)
(-1.67222 0.194009 9.17837e-20)
(-1.73482 0.177037 -3.88482e-20)
(-1.79101 0.161282 -1.53201e-19)
(-1.84259 0.146879 1.1741e-20)
(-1.88978 0.133945 1.0952e-19)
(-1.93366 0.122694 -4.19587e-20)
(-1.97446 0.112766 4.62041e-21)
(-2.01295 0.104106 -9.64462e-20)
(-2.04939 0.0965462 3.31399e-20)
(-2.08405 0.08991 -5.64061e-20)
(-2.11711 0.0840641 1.00751e-21)
(-2.14873 0.0788601 -6.95777e-20)
(-2.17901 0.0742023 2.26326e-21)
(-2.20804 0.0699748 -4.12049e-20)
(-2.23588 0.0661212 5.45706e-20)
(-2.26258 0.0625555 -9.41843e-20)
(-2.28817 0.0592514 1.2264e-20)
(-2.31269 0.0561468 -9.51648e-20)
(-2.33615 0.0532301 3.75145e-21)
(-2.35856 0.0504496 7.51482e-20)
(-2.37996 0.0478073 1.47485e-20)
(-2.40034 0.0452638 -4.41073e-20)
(-2.41971 0.0428262 -6.59912e-20)
(-2.4381 0.0404591 3.78353e-20)
(-2.4555 0.0381786 1.06681e-19)
(-2.47193 0.0359581 -3.3769e-20)
(-2.48737 0.033812 -1.13677e-21)
(-2.5018 0.0317108 -2.84731e-21)
(-2.51519 0.0296593 6.83105e-20)
(-2.52752 0.0276398 2.39732e-19)
(-2.53884 0.0256358 5.22218e-20)
(-2.54919 0.0236454 9.79484e-20)
(-2.55856 0.0216623 -2.12587e-19)
(-2.5669 0.0196897 -1.023e-19)
(-2.57422 0.0177142 6.66238e-20)
(-2.5805 0.015734 1.3562e-19)
(-2.58573 0.0137305 -7.46266e-20)
(-2.58994 0.0117004 -3.03664e-20)
(-2.59316 0.00963197 -5.23848e-20)
(-2.59542 0.0075433 7.62367e-20)
(-2.59683 0.00546092 -1.06039e-19)
(-2.59747 0.00343116 -7.98302e-20)
(-2.5974 0.0015177 -5.15353e-20)
(-2.59614 -0.000306489 1.70476e-19)
(-2.59365 -0.00209325 -1.92587e-20)
(-2.58987 -0.00386353 1.20475e-20)
(-2.58477 -0.00561149 6.28397e-20)
(-2.57832 -0.00735162 1.35504e-19)
(-2.57053 -0.00907153 -1.85163e-20)
(-2.56137 -0.0107831 -5.20748e-20)
(-2.55084 -0.0124729 4.12629e-21)
(-2.53893 -0.0141493 -9.62562e-20)
(-2.52563 -0.0157996 1.04297e-19)
(-2.51094 -0.0174282 3.90343e-20)
(-2.49486 -0.019025 3.06826e-20)
(-2.47739 -0.0205934 7.6029e-20)
(-2.45853 -0.0221305 9.10711e-20)
(-2.43829 -0.023641 -4.74336e-20)
(-2.4167 -0.0251186 3.06614e-20)
(-2.39375 -0.0265539 4.40832e-20)
(-2.36945 -0.0279379 5.29333e-20)
(-2.34378 -0.0292633 -6.03611e-21)
(-2.31679 -0.0305402 -2.32154e-21)
(-2.2885 -0.0317624 -4.18851e-20)
(-2.25894 -0.0329466 -3.82507e-20)
(-2.22816 -0.0340731 -4.0412e-20)
(-2.19618 -0.0351588 3.89466e-20)
(-2.16303 -0.0361779 -5.39746e-21)
(-2.12873 -0.0371546 -2.20116e-20)
(-2.09332 -0.0380609 -4.44063e-21)
(-2.05685 -0.038925 -2.36957e-20)
(-2.01935 -0.0397136 -2.89342e-20)
(-1.98087 -0.0404597 -1.35811e-20)
(-1.94144 -0.041136 6.35794e-21)
(-1.90111 -0.0417926 4.21312e-21)
(-1.85988 -0.0424042 3.69321e-21)
(-1.8178 -0.0430087 -2.26809e-21)
(-1.77489 -0.0435549 4.0854e-21)
(-1.73131 -0.0440415 -1.08741e-22)
(-1.68712 -0.0444364 1.07963e-20)
(-1.64229 -0.0447584 -1.04171e-20)
(-1.59684 -0.0449982 1.60581e-20)
(-1.5508 -0.0451607 8.58923e-21)
(-1.50422 -0.0452554 -1.88378e-20)
(-1.45717 -0.0452937 -6.45824e-21)
(-1.4097 -0.0452817 -3.52413e-20)
(-1.36187 -0.0452272 -2.30313e-20)
(-1.31371 -0.0451322 5.21426e-20)
(-1.26525 -0.0450049 8.70985e-20)
(-1.21654 -0.0448455 -1.23332e-19)
(-1.1676 -0.0446629 3.8753e-20)
(-1.11847 -0.0444551 7.8346e-21)
(-1.06915 -0.0442305 -2.24213e-19)
(-1.01968 -0.043984 5.62121e-21)
(-0.970066 -0.0437245 3.6008e-21)
(-0.920335 -0.0434487 -7.66187e-20)
(-0.870496 -0.0431693 9.85702e-20)
(-0.820555 -0.0428854 1.40719e-19)
(-0.770511 -0.0426111 1.48527e-19)
(-0.720358 -0.0423463 1.33724e-19)
(-0.670079 -0.0421049 -2.0135e-19)
(-0.619651 -0.0418854 2.60442e-20)
(-0.569047 -0.041698 -5.65978e-20)
(-0.518235 -0.0415384 1.55386e-19)
(-0.46718 -0.0414118 -4.79105e-20)
(-0.415853 -0.0413116 1.9753e-19)
(-0.364222 -0.0412424 -1.99975e-19)
(-0.312256 -0.0412016 -3.16138e-19)
(-0.25992 -0.0411916 -4.91739e-19)
(-0.207184 -0.0412112 -2.36576e-19)
(-0.154015 -0.0412601 -1.09164e-19)
(-0.100393 -0.0413228 5.35836e-20)
(-0.0463147 -0.0413714 3.34377e-20)
(0.00812774 -0.0413512 -3.9493e-19)
(0.0628073 -0.0411821 -3.67557e-19)
(0.117572 -0.0407481 5.03739e-19)
(0.172403 -0.0398834 6.1119e-19)
(0.22533 -0.0381795 5.69173e-19)
(0.28167 -0.0348165 2.84658e-19)
(0.317075 -0.0239051 -6.08073e-19)
(0.00059862 0.0218183 2.87143e-19)
(0.000556747 0.0393347 2.74055e-18)
(0.00523266 0.0342399 2.84855e-18)
(0.022157 0.00549644 -2.01201e-18)
(0.0577504 -0.0487002 3.61531e-19)
(0.106069 -0.111839 -1.61824e-19)
(0.157592 -0.165134 -6.44825e-20)
(0.205189 -0.198752 4.79661e-19)
(0.245516 -0.211727 3.68498e-19)
(0.278001 -0.208063 3.01523e-19)
(0.303533 -0.193093 1.34451e-19)
(0.323459 -0.171555 1.26584e-19)
(0.338989 -0.146844 -4.01476e-19)
(0.351023 -0.121065 -2.48201e-19)
(0.360147 -0.095388 8.89052e-20)
(0.366773 -0.0703921 -1.92163e-19)
(0.371167 -0.0463121 1.87773e-19)
(0.373549 -0.0232279 2.82362e-20)
(0.374068 -0.00112004 2.81227e-19)
(0.373106 0.0200932 2.44388e-19)
(0.370891 0.040609 -2.30629e-19)
(0.367683 0.0605052 -6.19543e-19)
(0.363548 0.07963 -1.11573e-19)
(0.358286 0.0975083 -7.21713e-19)
(0.351371 0.113306 1.62652e-19)
(0.342011 0.125836 2.5691e-19)
(0.32929 0.133675 -1.04748e-19)
(0.312463 0.135422 3.71683e-19)
(0.291392 0.130089 2.08964e-19)
(0.266863 0.117452 4.92915e-19)
(0.240759 0.0981097 -2.68041e-19)
(0.21577 0.0732855 -1.89188e-19)
(0.194755 0.0443132 1.07667e-19)
(0.180021 0.0126525 -1.50488e-19)
(0.171843 -0.0209843 -2.21686e-19)
(0.169283 -0.0531952 -1.34471e-20)
(0.166276 -0.0751851 -6.39372e-19)
(0.155753 -0.0781492 2.01437e-19)
(0.136521 -0.0629703 -4.65872e-19)
(0.109776 -0.0369715 -1.58783e-19)
(0.0758813 -0.00622628 1.44083e-19)
(0.0342166 0.0257458 -1.65472e-19)
(-0.0208003 0.0548608 -3.45391e-19)
(-0.100695 0.0866998 7.72065e-19)
(-0.202895 0.13087 6.34816e-19)
(-0.322946 0.183361 -3.22513e-19)
(-0.455913 0.238202 1.16156e-19)
(-0.595302 0.291593 -1.11086e-19)
(-0.733964 0.338192 -1.67671e-19)
(-0.866811 0.375353 -7.1978e-20)
(-0.990485 0.402873 -6.96921e-20)
(-1.10264 0.419487 1.21099e-19)
(-1.20243 0.425478 1.92324e-20)
(-1.28909 0.421604 8.36988e-20)
(-1.36317 0.409128 9.26472e-21)
(-1.42626 0.389792 1.03681e-20)
(-1.48061 0.365662 4.29857e-20)
(-1.5284 0.338984 6.56316e-20)
(-1.57155 0.311609 -1.10026e-20)
(-1.61151 0.28471 2.0942e-19)
(-1.64934 0.259331 1.50243e-19)
(-1.68569 0.236328 3.46943e-20)
(-1.7208 0.215711 7.72768e-20)
(-1.75502 0.197299 -1.79834e-19)
(-1.78856 0.181127 2.65731e-20)
(-1.82136 0.167091 1.04085e-19)
(-1.85338 0.154788 -1.67136e-19)
(-1.88464 0.144028 -7.58055e-20)
(-1.91508 0.134562 5.09675e-20)
(-1.9447 0.126167 3.99449e-20)
(-1.97348 0.118661 -8.48866e-20)
(-2.00139 0.111883 1.46816e-19)
(-2.02843 0.10571 1.71958e-20)
(-2.05459 0.100027 5.31421e-20)
(-2.07986 0.0947554 -1.74733e-19)
(-2.10426 0.0898195 1.69484e-19)
(-2.12776 0.0851728 3.56814e-20)
(-2.15037 0.0807639 -7.37716e-20)
(-2.17209 0.0765637 -1.34529e-19)
(-2.1929 0.0725353 -6.68776e-20)
(-2.21283 0.0686632 1.0759e-20)
(-2.23185 0.06492 2.89908e-20)
(-2.24998 0.0612961 -1.37382e-20)
(-2.26721 0.0577703 -1.02737e-19)
(-2.28355 0.0543409 -2.82468e-20)
(-2.299 0.0509925 -3.13163e-20)
(-2.31355 0.0477238 1.8799e-20)
(-2.32717 0.0445191 -6.5197e-20)
(-2.33985 0.0413712 -9.3723e-20)
(-2.35157 0.0382635 -1.15626e-19)
(-2.36236 0.0351816 3.74002e-20)
(-2.37226 0.0321184 -1.36998e-19)
(-2.38124 0.0290728 1.33498e-19)
(-2.3893 0.0260423 1.16121e-20)
(-2.3964 0.0230254 -3.16328e-20)
(-2.40254 0.0200203 -5.90371e-20)
(-2.40772 0.0170277 2.0438e-20)
(-2.41193 0.0140518 9.87002e-20)
(-2.41518 0.0110991 8.14768e-20)
(-2.41744 0.00817899 3.61574e-20)
(-2.4187 0.00529104 4.35372e-20)
(-2.41891 0.00243091 2.17643e-20)
(-2.41803 -0.000434288 2.01537e-20)
(-2.41596 -0.00330915 -2.79486e-19)
(-2.41269 -0.0061758 5.5041e-20)
(-2.40817 -0.00902442 4.98996e-20)
(-2.40237 -0.0118549 -9.71815e-20)
(-2.39527 -0.014664 8.26812e-20)
(-2.38687 -0.0174514 -2.75431e-20)
(-2.37714 -0.0202142 1.19594e-19)
(-2.36607 -0.0229493 8.70664e-20)
(-2.35367 -0.0256531 6.13043e-20)
(-2.33992 -0.0283199 -4.04069e-20)
(-2.32482 -0.0309454 4.87776e-20)
(-2.30837 -0.0335225 3.13739e-20)
(-2.29057 -0.0360491 -3.77769e-20)
(-2.27141 -0.038523 -5.65664e-20)
(-2.25093 -0.0409463 1.76472e-19)
(-2.22912 -0.0433106 2.62575e-20)
(-2.206 -0.0456059 -6.00895e-20)
(-2.18155 -0.0478186 -1.50476e-19)
(-2.1558 -0.049945 -1.89933e-20)
(-2.12875 -0.0519861 -1.27773e-21)
(-2.10044 -0.0539477 -5.19887e-20)
(-2.07091 -0.05583 5.34305e-21)
(-2.04019 -0.05763 4.03528e-20)
(-2.00829 -0.0593436 -1.09412e-19)
(-1.97526 -0.0609655 3.58015e-20)
(-1.94112 -0.0624951 1.38291e-20)
(-1.9059 -0.0639278 5.20031e-20)
(-1.86963 -0.0652654 -1.37108e-20)
(-1.83237 -0.0665002 2.74483e-20)
(-1.79414 -0.0676348 6.34073e-20)
(-1.75499 -0.0686617 5.91026e-21)
(-1.71496 -0.0695958 -1.91608e-20)
(-1.67407 -0.0704347 4.14671e-21)
(-1.63237 -0.0711915 2.24128e-21)
(-1.58993 -0.0718843 -1.25015e-21)
(-1.54684 -0.0725131 1.76003e-21)
(-1.50313 -0.0730415 -9.33017e-22)
(-1.45882 -0.0734574 4.28806e-21)
(-1.41391 -0.0737532 -4.20355e-20)
(-1.36844 -0.0739327 -5.99066e-21)
(-1.32246 -0.0740085 -6.6503e-21)
(-1.27603 -0.0739934 -1.33863e-20)
(-1.22921 -0.0738977 6.34101e-20)
(-1.18203 -0.0737309 -1.87759e-20)
(-1.13453 -0.0734995 -4.0823e-20)