/*--------------------------------*- C++ -*----------------------------------*\
  =========                 |
  \\      /  F ield         | OpenFOAM: The Open Source CFD Toolbox
   \\    /   O peration     | Website:  https://openfoam.org
    \\  /    A nd           | Version:  13
     \\/     M anipulation  |
\*---------------------------------------------------------------------------*/
FoamFile
{
    format      ascii;
    class       volScalarField;
    location    "1100";
    object      k;
}
// * * * * * * * * * * * * * * * * * * * * * * * * * * * * * * * * * * * * * //

dimensions      [0 2 -2 0 0 0 0];

internalField   nonuniform List<scalar> 
12225
(
0.658188
1.34984
1.64855
1.67155
1.63836
2.38201
1.95386
1.59262
2.38146
2.67414
2.04035
1.54058
2.61849
2.9943
2.98777
2.87018
1.98239
2.3722
0.387277
0.41531
0.386017
0.443032
0.440162
0.451206
0.464799
0.45582
0.414676
0.451125
0.442782
0.481499
0.564759
0.625119
0.714485
0.763018
0.814922
0.849405
0.377681
0.339864
0.23136
0.147217
0.0895469
0.0818423
0.0836504
0.0636553
0.0625008
0.0549824
0.0540146
0.0677378
0.0886667
0.109794
0.13246
0.160772
0.176069
0.199625
0.378358
0.327537
0.262027
0.1773
0.123138
0.0905505
0.0749136
0.0603294
0.0548267
0.0496785
0.0502194
0.0580071
0.0650517
0.0722112
0.0799783
0.0872604
0.0916659
0.0927169
0.382448
0.310903
0.24305
0.199238
0.173095
0.14915
0.139896
0.123295
0.118586
0.114818
0.113271
0.112922
0.113898
0.114875
0.11669
0.118258
0.120054
0.121144
0.385195
0.331027
0.301507
0.276673
0.257499
0.251799
0.232198
0.225453
0.219504
0.229831
0.221476
0.229811
0.22994
0.231799
0.231123
0.22714
0.224091
0.21724
0.380677
0.350246
0.337723
0.330902
0.323126
0.317704
0.313117
0.310217
0.305976
0.302739
0.299611
0.29654
0.294324
0.290127
0.28751
0.281717
0.278587
0.272191
0.375196
0.364161
0.355971
0.352419
0.348388
0.344561
0.34158
0.338903
0.336283
0.333058
0.330403
0.327083
0.324574
0.32062
0.317746
0.313082
0.310171
0.305335
0.374717
0.369618
0.365274
0.361729
0.358473
0.355802
0.353222
0.350866
0.348722
0.346242
0.344046
0.341423
0.339201
0.336246
0.333815
0.330481
0.328092
0.324698
0.374202
0.371268
0.368321
0.36558
0.363039
0.360753
0.358563
0.356457
0.354554
0.352524
0.350658
0.348572
0.346681
0.344443
0.342471
0.340068
0.338168
0.335743
0.373916
0.37155
0.369208
0.366944
0.364795
0.362745
0.360842
0.358956
0.35722
0.355462
0.353812
0.352075
0.350445
0.348669
0.347038
0.345215
0.343669
0.341857
0.373844
0.371568
0.369385
0.367281
0.365291
0.363377
0.361581
0.359833
0.358195
0.356579
0.35505
0.353504
0.352037
0.350518
0.349097
0.347596
0.346262
0.344801
0.373829
0.371561
0.369413
0.36736
0.365419
0.363564
0.361812
0.360129
0.35854
0.357
0.35554
0.354105
0.352739
0.351376
0.35009
0.348788
0.347592
0.346354
0.373827
0.371556
0.369409
0.367367
0.365434
0.363595
0.361853
0.360191
0.358616
0.357107
0.355674
0.354293
0.352978
0.351701
0.350488
0.349301
0.348183
0.347082
0.373826
0.371554
0.369401
0.367359
0.365424
0.363585
0.36184
0.360181
0.358603
0.3571
0.35567
0.354305
0.353004
0.351758
0.35057
0.349431
0.348344
0.347301
0.373825
0.371552
0.369396
0.367352
0.365413
0.363571
0.361822
0.360159
0.358579
0.357073
0.355641
0.354275
0.352975
0.351733
0.35055
0.349419
0.348341
0.34731
0.373825
0.37155
0.369393
0.367346
0.365404
0.36356
0.361808
0.360143
0.358559
0.357051
0.355615
0.354247
0.352943
0.351701
0.350515
0.349385
0.348304
0.347275
0.373825
0.371549
0.369391
0.367343
0.3654
0.363554
0.3618
0.360133
0.358546
0.357036
0.355598
0.354228
0.352922
0.351678
0.35049
0.349358
0.348276
0.347245
0.373825
0.371549
0.36939
0.367343
0.365399
0.363552
0.361798
0.360129
0.358542
0.357031
0.355592
0.354221
0.352914
0.351668
0.350479
0.349346
0.348263
0.347232
0.373825
0.37155
0.369392
0.367346
0.365402
0.363558
0.361803
0.360137
0.358549
0.35704
0.3556
0.354231
0.352923
0.351679
0.350489
0.349357
0.348274
0.347243
0.373826
0.371552
0.369396
0.367351
0.36541
0.363567
0.361816
0.36015
0.358566
0.357056
0.35562
0.35425
0.352946
0.351701
0.350515
0.349382
0.348303
0.34727
0.373827
0.371555
0.369401
0.36736
0.365421
0.363582
0.361834
0.360173
0.35859
0.357084
0.355649
0.354281
0.352978
0.351736
0.350551
0.349421
0.34834
0.347309
0.373827
0.371561
0.369408
0.367374
0.36544
0.363609
0.361867
0.36021
0.358624
0.357114
0.355669
0.354298
0.352988
0.351745
0.350557
0.349424
0.348333
0.34729
0.373828
0.371571
0.369421
0.367403
0.365482
0.363673
0.361935
0.360265
0.35864
0.357083
0.355581
0.354165
0.352815
0.351546
0.350331
0.349163
0.348027
0.346927
0.373827
0.371597
0.369462
0.367507
0.365629
0.363868
0.362094
0.360322
0.358522
0.356772
0.355071
0.353506
0.352025
0.350671
0.349364
0.348106
0.346846
0.345602
0.373854
0.371756
0.369711
0.36797
0.366215
0.364513
0.362534
0.360415
0.358124
0.35586
0.353699
0.351778
0.350019
0.348454
0.346953
0.345486
0.343956
0.34246
0.374345
0.372803
0.371168
0.37009
0.368616
0.366892
0.364393
0.361384
0.357997
0.354715
0.351547
0.349039
0.346685
0.344677
0.342783
0.340959
0.338979
0.336976
0.379237
0.379299
0.379868
0.381428
0.381017
0.379583
0.376186
0.371446
0.366458
0.361804
0.357503
0.354906
0.351733
0.349851
0.347797
0.347015
0.345497
0.345562
0.420807
0.43442
0.453285
0.469383
0.486014
0.49656
0.506301
0.513067
0.521207
0.528969
0.540143
0.55119
0.565869
0.579113
0.596547
0.611141
0.626863
0.640319
0.986542
1.28382
1.46866
1.56274
1.60496
1.6013
1.5816
1.55176
1.5129
1.47391
1.43664
1.40219
1.37099
1.34317
1.31835
1.29674
1.27758
1.26075
1.45492e-08
3.57211e-07
1.83811e-06
7.31585e-06
2.46167e-05
7.41109e-05
0.000202601
0.000419167
0.000698647
0.00099991
0.00127832
0.00149633
0.00164772
0.00170808
0.00168995
0.00162199
0.00149075
0.00127569
0.00107426
0.000906136
0.000750188
0.000600578
0.000458278
0.000327495
0.000213068
0.000125582
6.81709e-05
3.55707e-05
1.88949e-05
1.07027e-05
6.78979e-06
4.98291e-06
6.25812e-06
8.63883e-06
4.36853e-05
0.000105592
0.000343767
0.000755704
0.00115294
0.00131592
0.00122167
0.00100346
0.000769745
0.00057242
0.000536723
0.000648705
0.000852629
0.00153708
0.00283417
0.0071892
0.0214602
0.0522
0.0851718
0.102379
0.114402
0.138286
0.143159
0.134879
0.131977
0.143045
0.15841
0.141037
0.158814
0.156674
0.16276
0.176155
0.182543
0.191515
0.199078
0.20713
0.214657
0.222358
0.229772
0.237241
0.244556
0.251864
0.259088
0.266276
0.273411
0.280496
0.287537
0.294523
0.301459
0.308335
0.315148
0.3219
0.328568
0.335169
0.341661
0.348063
0.35435
0.36051
0.366536
0.372402
0.37811
0.383633
0.388977
0.394124
0.399086
0.403863
0.408471
0.412946
0.417328
0.421572
0.425631
0.429543
0.43327
0.436841
0.440227
0.443446
0.446485
0.449348
0.452037
0.454541
0.456879
0.459027
0.461017
0.462819
0.464463
0.465917
0.467221
0.468352
0.469353
0.470183
0.470885
0.471399
0.471767
0.471913
0.471852
0.471658
0.471454
0.471123
0.470687
0.470125
0.469517
0.468908
0.468399
0.467782
0.466536
0.465517
0.464297
0.463098
0.461677
0.460231
0.45854
0.456834
0.455007
0.4531
0.451101
0.449012
0.446836
0.444573
0.442235
0.439769
0.437284
0.434647
0.43202
0.429228
0.426487
0.423575
0.420771
0.417782
0.414861
0.411825
0.408782
0.405692
0.402569
0.399414
0.396234
0.393033
0.389816
0.386585
0.383333
0.380046
0.376684
0.373161
0.369371
0.364991
0.359259
0.342891
6.59317e-08
1.85234e-06
1.24632e-05
5.37445e-05
0.00020423
0.000610407
0.00150147
0.00283878
0.00443663
0.00610077
0.00765064
0.00893828
0.00990489
0.0105233
0.0108245
0.0107928
0.0106374
0.0102973
0.00971505
0.00890809
0.00787796
0.00668089
0.00537701
0.00405969
0.00281165
0.0018578
0.00118464
0.000739154
0.000457121
0.000286275
0.000191943
0.000138242
0.000133402
0.000104491
0.000558943
0.00120509
0.00361772
0.00723617
0.0103859
0.0123526
0.0122675
0.0116466
0.00980029
0.00874032
0.00995699
0.014264
0.0209513
0.0318907
0.0506245
0.0767534
0.101264
0.124848
0.142613
0.156448
0.170253
0.185685
0.198167
0.213148
0.230695
0.248672
0.266088
0.284547
0.303144
0.321169
0.339942
0.358775
0.376904
0.394956
0.412741
0.430351
0.447786
0.465094
0.48229
0.4994
0.516446
0.533438
0.550393
0.567313
0.584209
0.601076
0.617924
0.634742
0.651532
0.668285
0.684997
0.701658
0.718261
0.734798
0.751242
0.767607
0.783851
0.799976
0.815944
0.831737
0.847328
0.862693
0.877806
0.892636
0.907157
0.921331
0.93513
0.948519
0.961479
0.974119
0.986452
0.998467
1.01015
1.02149
1.03248
1.0431
1.05335
1.06321
1.07268
1.08175
1.09041
1.09866
1.1065
1.11393
1.12094
1.12753
1.13371
1.13949
1.1449
1.14993
1.15457
1.15884
1.16273
1.16623
1.16937
1.17214
1.17455
1.17661
1.1783
1.17961
1.18052
1.18079
1.18183
1.18178
1.18192
1.18249
1.18217
1.18238
1.18183
1.1811
1.17992
1.17851
1.17682
1.17485
1.1726
1.17007
1.16726
1.16416
1.16078
1.15709
1.1531
1.14883
1.14426
1.13944
1.13434
1.12902
1.12346
1.11769
1.11167
1.10544
1.09899
1.09233
1.08545
1.07838
1.0711
1.06364
1.05601
1.04821
1.04024
1.03207
1.02365
1.01483
1.00545
0.995179
0.981855
0.953728
1.61652e-07
4.76731e-06
3.58552e-05
0.000166364
0.000687676
0.00168743
0.00362669
0.00591771
0.00825896
0.0104143
0.0122467
0.0136811
0.0147075
0.0153463
0.0156469
0.0156311
0.0154973
0.0151595
0.0146535
0.0140064
0.0132185
0.0122801
0.0111801
0.00991748
0.00851242
0.00692019
0.00530707
0.00386018
0.00262957
0.00176044
0.00124123
0.000904763
0.000801651
0.000868575
0.00242583
0.00609031
0.0140632
0.0217431
0.0273693
0.0306281
0.0316549
0.0310318
0.0322191
0.038999
0.0553584
0.0735982
0.0923324
0.113395
0.134839
0.154496
0.175046
0.194681
0.214561
0.235875
0.260008
0.286449
0.31341
0.341477
0.369528
0.396965
0.424332
0.451386
0.477877
0.503871
0.529506
0.554484
0.578998
0.603118
0.626887
0.650382
0.673641
0.696715
0.719633
0.742428
0.765118
0.787719
0.810245
0.832701
0.855092
0.877417
0.899678
0.92187
0.94399
0.966032
0.987989
1.00985
1.03161
1.05326
1.07478
1.09616
1.1174
1.13849
1.15938
1.18009
1.20057
1.22082
1.24082
1.26056
1.28001
1.29917
1.31802
1.33652
1.35467
1.37243
1.38978
1.4067
1.42317
1.43916
1.45466
1.46965
1.48411
1.49804
1.51141
1.52423
1.53647
1.54813
1.55922
1.56972
1.57964
1.58897
1.59772
1.60592
1.61357
1.62069
1.62727
1.63334
1.63887
1.64389
1.64839
1.65241
1.65594
1.659
1.66159
1.66373
1.66542
1.66665
1.66772
1.66809
1.66808
1.66775
1.66714
1.66638
1.66511
1.66348
1.6614
1.65895
1.65609
1.65283
1.64915
1.64507
1.64058
1.63567
1.63033
1.62459
1.61839
1.6118
1.60476
1.59735
1.58952
1.58136
1.57281
1.56396
1.55475
1.54525
1.53544
1.52535
1.51497
1.50431
1.4934
1.48225
1.47087
1.45928
1.4475
1.43552
1.4233
1.41075
1.39774
1.38405
1.36756
1.34074
6.51554e-07
1.94789e-05
0.00015019
0.000620338
0.00197542
0.0046643
0.00810381
0.0115081
0.0145239
0.0169611
0.0187664
0.0199665
0.0206359
0.020852
0.0207719
0.020496
0.0199879
0.0193536
0.0186278
0.0178274
0.0169563
0.0160105
0.0149768
0.0138316
0.0125612
0.0111405
0.00960551
0.00801932
0.0065484
0.00510855
0.0040828
0.00306088
0.00318203
0.00492103
0.0116164
0.0253288
0.03795
0.0476104
0.0542683
0.059063
0.0646412
0.0738083
0.0869529
0.102547
0.118221
0.134337
0.152014
0.172212
0.193383
0.216519
0.241358
0.267759
0.296049
0.32615
0.357788
0.390228
0.422904
0.455619
0.488009
0.51999
0.551574
0.582652
0.6132
0.643206
0.672763
0.701821
0.730484
0.758805
0.786839
0.814641
0.842248
0.8697
0.897022
0.924235
0.951354
0.978391
1.00535
1.03223
1.05904
1.08577
1.11242
1.13899
1.16546
1.19184
1.21811
1.24427
1.27031
1.29622
1.32198
1.3476
1.37306
1.39836
1.42348
1.44839
1.47309
1.49755
1.52175
1.54568
1.56932
1.59263
1.6156
1.63818
1.66034
1.68205
1.70327
1.72398
1.74414
1.76373
1.78273
1.8011
1.81884
1.83592
1.85232
1.86804
1.88306
1.89737
1.91097
1.92385
1.93601
1.94745
1.95817
1.96821
1.97757
1.98626
1.99428
2.00166
2.00838
2.01447
2.01993
2.02479
2.02904
2.0327
2.03579
2.03832
2.0403
2.04175
2.04269
2.04289
2.04242
2.0417
2.04055
2.03899
2.0369
2.03431
2.03121
2.02761
2.02349
2.01886
2.01372
2.00806
2.00189
1.9952
1.98798
1.98025
1.97199
1.96323
1.95394
1.94418
1.93392
1.92323
1.91209
1.90056
1.88862
1.87631
1.86365
1.85064
1.83731
1.82365
1.8097
1.79548
1.78102
1.76633
1.75146
1.73642
1.72122
1.70584
1.69017
1.67408
1.65582
1.63035
2.23587e-06
6.7346e-05
0.0004936
0.00196446
0.00545244
0.0105385
0.0154098
0.0194271
0.0223826
0.0243214
0.0254093
0.0258427
0.0257863
0.0254801
0.0248619
0.0241009
0.0232522
0.022355
0.0214354
0.0205047
0.0195624
0.0186009
0.0176066
0.0165574
0.0154309
0.0141876
0.0128197
0.0113722
0.00996849
0.00864157
0.00720503
0.00750221
0.0109718
0.0221327
0.0406253
0.0577161
0.0716334
0.0820431
0.090375
0.0987809
0.108552
0.119631
0.131969
0.145462
0.161304
0.179991
0.201362
0.225441
0.251808
0.280281
0.310417
0.342046
0.374953
0.408844
0.443372
0.478196
0.513094
0.547917
0.582554
0.616963
0.651079
0.684851
0.718265
0.75132
0.784057
0.816479
0.848636
0.880566
0.912309
0.943899
0.975366
1.00673
1.03802
1.06924
1.1004
1.13149
1.16253
1.1935
1.22441
1.25523
1.28597
1.31662
1.34716
1.3776
1.40791
1.43811
1.46817
1.49808
1.52784
1.55743
1.58687
1.61612
1.64518
1.67402
1.70264
1.73099
1.75907
1.78685
1.8143
1.84138
1.86807
1.89432
1.92009
1.94535
1.97005
1.99418
2.01768
2.04053
2.0627
2.08416
2.10488
2.12485
2.14403
2.16242
2.17999
2.19675
2.21267
2.22774
2.24197
2.25535
2.2679
2.27963
2.29055
2.30067
2.31
2.31855
2.32633
2.33335
2.33962
2.34516
2.34998
2.35409
2.35751
2.36025
2.36233
2.36375
2.36441
2.36429
2.36345
2.36218
2.36036
2.35797
2.355
2.35141
2.34723
2.34243
2.33703
2.33103
2.32441
2.31719
2.30936
2.30093
2.29189
2.28226
2.27202
2.26119
2.24978
2.2378
2.22527
2.21224
2.1987
2.18469
2.17024
2.15536
2.14009
2.12443
2.1084
2.09202
2.07532
2.05833
2.04109
2.02364
2.00602
1.98828
1.97046
1.95258
1.93459
1.91643
1.89664
1.87143
7.00124e-06
0.000207236
0.00148313
0.00532201
0.0126425
0.0193867
0.0244081
0.0276622
0.0294854
0.0302872
0.0303638
0.0300701
0.0293816
0.0284627
0.0274248
0.0263335
0.0252357
0.0241606
0.0231246
0.0221306
0.0211721
0.0202352
0.0192999
0.0183358
0.0173243
0.0162098
0.0149399
0.0134711
0.0118326
0.0110973
0.0128999
0.0200021
0.0360227
0.0574778
0.077886
0.0946473
0.10706
0.116025
0.123594
0.131431
0.140405
0.151249
0.165074
0.182052
0.202143
0.225494
0.251658
0.280154
0.310427
0.342098
0.374896
0.408643
0.443145
0.478234
0.513748
0.549552
0.585549
0.621651
0.657798
0.693936
0.729997
0.765945
0.801762
0.837437
0.872978
0.90839
0.943695
0.978914
1.01407
1.04918
1.08426
1.11933
1.15439
1.18944
1.22447
1.25949
1.29448
1.32942
1.36431
1.39913
1.43386
1.4685
1.50303
1.53743
1.57171
1.60585
1.63985
1.67368
1.70734
1.74084
1.77415
1.80727
1.84018
1.87286
1.90529
1.93745
1.9693
2.00081
2.03196
2.06271
2.09302
2.12283
2.15213
2.18086
2.20898
2.23645
2.26323
2.28928
2.31458
2.33907
2.36273
2.38554
2.40746
2.42848
2.44858
2.46773
2.48593
2.50316
2.51942
2.53471
2.54903
2.5624
2.57483
2.58632
2.5969
2.60656
2.61531
2.62318
2.63018
2.63631
2.6416
2.64605
2.6497
2.65255
2.65461
2.65583
2.65616
2.6556
2.65436
2.65247
2.6499
2.64665
2.64271
2.63808
2.63274
2.62671
2.61999
2.61257
2.60446
2.59566
2.58617
2.57599
2.56515
2.55363
2.54145
2.5286
2.51511
2.50099
2.48626
2.47097
2.45512
2.43875
2.42189
2.40457
2.3868
2.36862
2.35004
2.33108
2.31178
2.29218
2.27232
2.25227
2.23207
2.21181
2.19152
2.17129
2.1511
2.1309
2.1095
2.08372
2.19767e-05
0.000614716
0.00405835
0.0129667
0.0222568
0.0285284
0.0321417
0.0339522
0.0346038
0.0345066
0.0339469
0.0329468
0.0317275
0.0303903
0.0290166
0.0276668
0.0263812
0.025182
0.0240761
0.0230568
0.0221097
0.0212092
0.0203271
0.0194085
0.0184389
0.0175226
0.016831
0.0167508
0.0180659
0.0228078
0.0333593
0.0523773
0.074553
0.0953937
0.112712
0.125162
0.133599
0.140105
0.146633
0.154747
0.165935
0.18054
0.198575
0.220091
0.244709
0.272001
0.301294
0.332061
0.363931
0.396693
0.430223
0.464435
0.499258
0.534631
0.5705
0.606809
0.64351
0.680538
0.717834
0.755351
0.793039
0.830856
0.868774
0.906773
0.944845
0.982987
1.0212
1.05949
1.09788
1.13635
1.17492
1.21357
1.25232
1.29114
1.33001
1.36892
1.40785
1.44676
1.48565
1.52447
1.56321
1.60185
1.64038
1.67877
1.71703
1.75513
1.79306
1.83082
1.86841
1.90579
1.94298
1.97997
2.01673
2.05325
2.08949
2.12544
2.16105
2.19631
2.23117
2.26558
2.29952
2.33293
2.36577
2.39799
2.42955
2.4604
2.49049
2.51978
2.54822
2.57578
2.60242
2.62809
2.65278
2.67645
2.69909
2.72066
2.74115
2.76054
2.77883
2.79601
2.81209
2.82708
2.84098
2.85382
2.8656
2.87632
2.88601
2.89467
2.90232
2.90898
2.91467
2.91939
2.92318
2.92604
2.92797
2.9289
2.92887
2.92788
2.92608
2.92349
2.9201
2.91593
2.91096
2.90521
2.89866
2.89134
2.88323
2.87436
2.86471
2.85429
2.84311
2.83118
2.81851
2.8051
2.79097
2.77611
2.76055
2.74431
2.72741
2.7099
2.69178
2.67311
2.6539
2.63419
2.614
2.59336
2.5723
2.55085
2.52903
2.50691
2.48453
2.46197
2.43929
2.41657
2.3939
2.37135
2.34896
2.3267
2.3035
2.27654
6.57214e-05
0.00169478
0.0097334
0.0227868
0.0312424
0.0358487
0.0381066
0.0389053
0.0387645
0.0380059
0.0367246
0.0351699
0.0334747
0.0317471
0.0300692
0.0284985
0.0270677
0.0257875
0.0246532
0.0236468
0.0227419
0.0218985
0.0210589
0.0202235
0.0195268
0.0192346
0.0201551
0.023822
0.0323763
0.0476076
0.067847
0.0885778
0.108064
0.124288
0.136257
0.144345
0.150393
0.156828
0.165478
0.177318
0.1927
0.211674
0.23394
0.259108
0.286579
0.315767
0.346157
0.37745
0.409496
0.44223
0.47563
0.509683
0.544388
0.579741
0.615735
0.652342
0.689527
0.727249
0.765466
0.804135
0.843211
0.882656
0.922438
0.962533
1.00292
1.0436
1.08454
1.12576
1.16724
1.20898
1.25096
1.29317
1.33559
1.37818
1.42092
1.46377
1.50669
1.54964
1.59259
1.6355
1.67833
1.72106
1.76366
1.80612
1.84842
1.89054
1.93249
1.97424
2.01579
2.05713
2.09825
2.13915
2.1798
2.22019
2.26028
2.30005
2.33947
2.3785
2.41711
2.45524
2.49285
2.5299
2.56633
2.60209
2.63713
2.6714
2.70485
2.73741
2.76905
2.79971
2.82935
2.85792
2.8854
2.91175
2.93693
2.96093
2.98371
3.00526
3.02556
3.04462
3.06244
3.07902
3.09437
3.10851
3.12144
3.13318
3.14374
3.15313
3.16138
3.1685
3.1745
3.17942
3.18326
3.18604
3.18775
3.18833
3.18785
3.18636
3.18391
3.18054
3.17625
3.17108
3.16501
3.15806
3.15024
3.14156
3.13201
3.12162
3.11038
3.0983
3.0854
3.07167
3.05715
3.04183
3.02573
3.00885
2.99122
2.97286
2.95381
2.93409
2.91374
2.8928
2.87128
2.84922
2.82666
2.80362
2.78014
2.75624
2.73198
2.7074
2.68257
2.65755
2.63244
2.60732
2.5823
2.55745
2.53284
2.50845
2.48329
2.45468
0.000173245
0.00407516
0.0187011
0.0317311
0.0386403
0.042002
0.0433267
0.0433436
0.0425446
0.0410577
0.0391829
0.0370972
0.0349494
0.0328599
0.0309156
0.0291722
0.0276559
0.026372
0.0253168
0.02448
0.0238651
0.0234887
0.0234943
0.0240441
0.0257265
0.0290162
0.035147
0.0459011
0.0613782
0.0793807
0.0979853
0.11521
0.129777
0.141033
0.149373
0.156235
0.163597
0.173162
0.185826
0.201949
0.22142
0.243905
0.268912
0.29592
0.324392
0.353907
0.384197
0.415152
0.446749
0.479002
0.511943
0.545606
0.580024
0.615219
0.651197
0.687951
0.725467
0.763722
0.802686
0.842324
0.882602
0.923486
0.964948
1.00696
1.04951
1.09257
1.13613
1.18017
1.22468
1.26964
1.31502
1.36078
1.4069
1.45333
1.5
1.54688
1.59389
1.64099
1.68812
1.73522
1.78226
1.82919
1.87599
1.92262
1.96908
2.01533
2.06138
2.10721
2.15282
2.19818
2.2433
2.28816
2.33277
2.37708
2.42108
2.46472
2.50799
2.55083
2.59322
2.6351
2.67641
2.71713
2.75717
2.79649
2.83503
2.87274
2.90954
2.94539
2.98022
3.01399
3.04663
3.07809
3.10835
3.13735
3.16507
3.19146
3.2165
3.24016
3.26244
3.28332
3.30282
3.32093
3.33767
3.35303
3.36705
3.37972
3.39108
3.40112
3.40987
3.41735
3.42358
3.42858
3.43238
3.43499
3.43637
3.43654
3.43554
3.43342
3.43022
3.42597
3.4207
3.41443
3.40718
3.39896
3.38979
3.37967
3.36862
3.35664
3.34375
3.32996
3.31528
3.29973
3.28331
3.26605
3.24795
3.22904
3.20933
3.18885
3.16765
3.14575
3.12319
3.1
3.07621
3.05185
3.02697
3.00158
2.97573
2.94945
2.92279
2.89581
2.86858
2.84117
2.81368
2.78621
2.75884
2.7317
2.70484
2.67827
2.65107
2.62077
0.000393276
0.00840736
0.0279558
0.0397312
0.0453917
0.0478516
0.048415
0.0477586
0.0462274
0.0441136
0.0416518
0.0390455
0.0364681
0.0340598
0.031918
0.0301014
0.0286314
0.0275034
0.0266913
0.0262456
0.0261516
0.0266302
0.0280492
0.0310288
0.0365376
0.0453786
0.0576729
0.0722732
0.0880093
0.103923
0.118809
0.131702
0.142352
0.151143
0.159109
0.167731
0.178362
0.191866
0.208482
0.228076
0.25029
0.274684
0.300796
0.328197
0.356534
0.385577
0.415228
0.445479
0.476371
0.507959
0.540308
0.573476
0.607513
0.642448
0.678308
0.715104
0.752839
0.791505
0.831086
0.87156
0.912905
0.955096
0.998112
1.04193
1.08653
1.1319
1.178
1.22483
1.27235
1.32054
1.36934
1.41872
1.46861
1.51895
1.56966
1.62068
1.6719
1.72327
1.7747
1.82614
1.87751
1.92878
1.97989
2.03082
2.08155
2.13205
2.18231
2.23232
2.28206
2.33154
2.38073
2.42964
2.47825
2.52655
2.57449
2.62204
2.66918
2.71586
2.76203
2.80766
2.85268
2.89704
2.94068
2.98354
3.02555
3.06665
3.10678
3.14586
3.18384
3.22064
3.25622
3.29051
3.32348
3.35506
3.38523
3.41393
3.44114
3.46683
3.49098
3.51358
3.53465
3.55418
3.57218
3.58866
3.60364
3.61713
3.62914
3.6397
3.64883
3.65655
3.66288
3.66785
3.67148
3.67379
3.67474
3.67439
3.67275
3.66987
3.66579
3.66055
3.65419
3.64674
3.6382
3.62862
3.618
3.60636
3.59371
3.58008
3.56548
3.54991
3.53341
3.51597
3.49762
3.47838
3.45826
3.43728
3.41547
3.39287
3.36952
3.34546
3.32071
3.29531
3.26929
3.24269
3.21553
3.18785
3.15968
3.13108
3.10208
3.07276
3.0432
3.01347
2.98365
2.95386
2.92419
2.89477
2.86564
2.83687
2.80757
2.77561
0.000765746
0.0148717
0.0362588
0.0469153
0.0517707
0.0536045
0.0535896
0.0523214
0.0501788
0.0474712
0.0444658
0.0414017
0.0384829
0.0358759
0.0336978
0.032028
0.030889
0.0303348
0.0303334
0.0310558
0.0326384
0.0354691
0.0402213
0.0472175
0.0565032
0.0678065
0.0805969
0.0941398
0.107621
0.120353
0.131871
0.142057
0.151247
0.160225
0.170065
0.181754
0.195925
0.212773
0.232161
0.253776
0.277246
0.302195
0.328287
0.355245
0.382874
0.411082
0.439859
0.46925
0.499329
0.530176
0.561874
0.594489
0.628082
0.6627
0.698384
0.735161
0.77305
0.812058
0.852187
0.89343
0.93578
0.979225
1.02375
1.06934
1.11599
1.16366
1.21233
1.26198
1.31256
1.36403
1.41634
1.46942
1.52318
1.57755
1.63241
1.68766
1.74321
1.79895
1.8548
1.91067
1.96649
2.02219
2.07773
2.13306
2.18817
2.24303
2.29761
2.3519
2.40588
2.45954
2.51288
2.56589
2.61856
2.67087
2.72277
2.77425
2.82525
2.87573
2.92567
2.97499
3.02365
3.07159
3.11875
3.16504
3.21042
3.25481
3.29813
3.34032
3.38131
3.42102
3.4594
3.49637
3.53188
3.56589
3.59835
3.6292
3.65841
3.68595
3.7118
3.73596
3.7584
3.77917
3.79824
3.81566
3.83142
3.84554
3.85804
3.86895
3.87827
3.88604
3.8923
3.89706
3.90036
3.9022
3.9026
3.90159
3.89915
3.89536
3.89026
3.8839
3.87632
3.86756
3.85763
3.84657
3.8344
3.82114
3.80681
3.79144
3.77504
3.75764
3.73924
3.71987
3.69954
3.67828
3.6561
3.63303
3.60912
3.5844
3.55893
3.53272
3.50582
3.47826
3.45007
3.42127
3.39191
3.362
3.33159
3.30073
3.26949
3.23792
3.2061
3.17411
3.14205
3.11
3.07808
3.04641
3.01504
2.98406
2.95266
2.91891
0.0012536
0.0219192
0.0439269
0.0540308
0.0583607
0.0596732
0.0591658
0.0573628
0.0546811
0.051479
0.0480703
0.0447323
0.0416979
0.0391603
0.037267
0.0361726
0.0358725
0.0363658
0.0378109
0.0404462
0.0445105
0.050182
0.0573865
0.0660883
0.0760944
0.0870564
0.0985
0.109927
0.12096
0.131408
0.141275
0.150841
0.160693
0.171563
0.1841
0.198719
0.215552
0.234482
0.255263
0.277598
0.301201
0.325818
0.351242
0.377322
0.403976
0.431187
0.458993
0.487469
0.516707
0.546799
0.577832
0.609887
0.643036
0.677342
0.712856
0.749623
0.787678
0.827045
0.867744
0.909791
0.953195
0.997957
1.04407
1.09153
1.14032
1.19042
1.24179
1.2944
1.34818
1.40309
1.45904
1.51595
1.57372
1.63222
1.69132
1.75091
1.81085
1.87103
1.93134
1.99169
2.05199
2.11218
2.17219
2.23199
2.29154
2.35081
2.40977
2.4684
2.52667
2.58457
2.64209
2.69921
2.75594
2.81225
2.86809
2.92344
2.97824
3.03245
3.08603
3.13893
3.19109
3.24246
3.29296
3.34252
3.39107
3.43854
3.48484
3.52992
3.57368
3.61605
3.65697
3.69636
3.73417
3.77034
3.80482
3.83756
3.86852
3.89766
3.92494
3.95037
3.97393
3.99566
4.01556
4.03364
4.04992
4.06443
4.07716
4.08815
4.09742
4.10501
4.11095
4.11528
4.11803
4.11922
4.11887
4.11701
4.11358
4.10869
4.1024
4.09476
4.08582
4.0756
4.06415
4.05148
4.03764
4.02265
4.00653
3.98932
3.97104
3.95172
3.93137
3.91001
3.88766
3.86434
3.84007
3.81491
3.78891
3.76209
3.73452
3.70622
3.67722
3.64757
3.61728
3.58637
3.55489
3.52285
3.4903
3.45729
3.42389
3.39018
3.35622
3.32209
3.28788
3.25368
3.21959
3.18573
3.15218
3.11904
3.08555
3.05003
0.00184173
0.0283264
0.0509148
0.0609606
0.0650934
0.0661399
0.0652525
0.0630144
0.0599139
0.0564022
0.0528623
0.0496091
0.0468927
0.0449124
0.0439492
0.0438253
0.0447217
0.0466856
0.0497863
0.0541022
0.0596503
0.0663818
0.0741721
0.0828417
0.0921484
0.101842
0.111682
0.1215
0.131226
0.140931
0.150867
0.161432
0.173083
0.186203
0.201034
0.217636
0.23592
0.255703
0.27677
0.298911
0.321947
0.34573
0.370157
0.395166
0.420744
0.44692
0.473763
0.501359
0.529805
0.559202
0.589645
0.621225
0.654027
0.688126
0.723591
0.760478
0.798835
0.838712
0.880148
0.92318
0.967832
1.01413
1.06207
1.11166
1.1629
1.21573
1.27013
1.32602
1.38333
1.44197
1.50183
1.5628
1.62474
1.68748
1.75089
1.81481
1.8791
1.94365
2.00833
2.07304
2.13771
2.20226
2.26666
2.33086
2.3948
2.45844
2.52174
2.58467
2.6472
2.70928
2.77093
2.8321
2.89281
2.95301
3.01268
3.07176
3.1302
3.18796
3.24499
3.30124
3.35666
3.4112
3.46476
3.5173
3.56871
3.61893
3.66787
3.71547
3.76165
3.80632
3.8494
3.89083
3.93055
3.96849
4.00461
4.03886
4.07118
4.10155
4.12992
4.15624
4.18056
4.20289
4.22326
4.24166
4.25813
4.27266
4.28529
4.29604
4.30494
4.31202
4.31735
4.32095
4.32288
4.32315
4.32185
4.31887
4.31421
4.30801
4.30034
4.29123
4.28073
4.26889
4.25575
4.24133
4.22568
4.20882
4.1908
4.17165
4.1514
4.13007
4.1077
4.08431
4.05991
4.0345
4.00814
3.9809
3.95282
3.92395
3.89433
3.864
3.83299
3.80133
3.76904
3.73614
3.70265
3.6686
3.63403
3.59901
3.56362
3.52791
3.49195
3.45583
3.41961
3.38339
3.34725
3.31133
3.27569
3.24049
3.205
3.16779
0.00257685
0.0336773
0.0578421
0.0681489
0.0721877
0.0730313
0.0717976
0.0692091
0.0658174
0.0621868
0.0588366
0.0561123
0.0541804
0.0532532
0.0531381
0.0540702
0.0561074
0.0591861
0.0632888
0.0683669
0.0743478
0.0811312
0.0885898
0.0965864
0.105004
0.113756
0.122787
0.132103
0.141803
0.152078
0.163168
0.175321
0.188743
0.203541
0.219731
0.237237
0.255935
0.275676
0.296322
0.317752
0.339875
0.362625
0.385974
0.40992
0.434495
0.459758
0.485789
0.512684
0.540543
0.569461
0.599539
0.630877
0.663571
0.697711
0.73338
0.770658
0.809623
0.850344
0.892893
0.937327
0.983696
1.03204
1.08237
1.1347
1.189
1.24523
1.3033
1.36311
1.42454
1.48743
1.55163
1.61697
1.68325
1.75028
1.81789
1.88591
1.95427
2.02286
2.09156
2.16026
2.22889
2.29746
2.36594
2.43425
2.50232
2.57008
2.63749
2.70447
2.77101
2.83707
2.9026
2.9676
3.03203
3.09586
3.15906
3.22158
3.28335
3.34432
3.40444
3.46367
3.52196
3.57925
3.63546
3.69052
3.74434
3.79683
3.84792
3.89754
3.94561
3.99205
4.03678
4.07972
4.12081
4.15999
4.19722
4.23244
4.26561
4.29671
4.3257
4.35252
4.3772
4.39975
4.42018
4.43851
4.45475
4.46892
4.48104
4.49113
4.49924
4.50542
4.50971
4.51219
4.5129
4.51194
4.50928
4.50483
4.49868
4.49092
4.48161
4.4708
4.45854
4.44488
4.42986
4.41352
4.3959
4.37705
4.357
4.33579
4.31346
4.29006
4.26561
4.24016
4.21369
4.18619
4.15776
4.12847
4.09838
4.06752
4.03594
4.00366
3.97074
3.93718
3.90302
3.86828
3.83294
3.79703
3.76062
3.72378
3.68657
3.64905
3.6113
3.57336
3.53533
3.49727
3.45926
3.42142
3.38387
3.34674
3.3094
3.27068
0.00337201
0.0393932
0.064747
0.0753889
0.0794392
0.0801413
0.0785265
0.0754696
0.0718873
0.0685134
0.065793
0.0639276
0.0630577
0.0628853
0.0635966
0.0654135
0.0681983
0.0718645
0.0763451
0.0815777
0.0874935
0.0940258
0.101116
0.108724
0.116823
0.125418
0.134556
0.144322
0.154837
0.16623
0.178611
0.192065
0.206626
0.222276
0.238955
0.256576
0.275052
0.294295
0.314243
0.334847
0.356086
0.377953
0.400464
0.423654
0.447586
0.472335
0.497961
0.524558
0.552229
0.58108
0.61122
0.642763
0.67582
0.710505
0.746927
0.785195
0.825415
0.867693
0.912129
0.958812
1.00782
1.05919
1.11295
1.1691
1.22757
1.28826
1.35103
1.41575
1.48219
1.55013
1.61928
1.68933
1.75999
1.83111
1.90249
1.97393
2.04558
2.11739
2.18928
2.26118
2.33314
2.40519
2.47718
2.54907
2.62072
2.69205
2.76295
2.83341
2.90338
2.9728
3.04164
3.10985
3.1774
3.24426
3.31038
3.37571
3.44019
3.50374
3.56634
3.62793
3.68847
3.7479
3.80616
3.86312
3.91873
3.97287
4.02549
4.07649
4.12583
4.1734
4.21914
4.26295
4.30478
4.34458
4.38228
4.41787
4.45129
4.48254
4.51156
4.53838
4.56293
4.58522
4.60523
4.62299
4.63851
4.65181
4.66292
4.67186
4.67868
4.68345
4.68624
4.68713
4.68624
4.68363
4.67908
4.67277
4.66476
4.65511
4.64385
4.63104
4.61674
4.60099
4.58385
4.56535
4.54556
4.52451
4.50226
4.47885
4.45432
4.42872
4.4021
4.3745
4.34594
4.31639
4.28596
4.25471
4.22269
4.18995
4.15651
4.12242
4.08771
4.0524
4.01654
3.98014
3.94315
3.90559
3.86757
3.82913
3.79035
3.75127
3.71194
3.67244
3.63282
3.59315
3.5535
3.51399
3.47473
3.4359
3.39689
3.35693
0.00419378
0.0449779
0.0716854
0.0827353
0.0867984
0.0873334
0.085297
0.0819978
0.0785965
0.0757998
0.0738768
0.0729688
0.0727292
0.0731405
0.074587
0.0769614
0.080158
0.0841015
0.088734
0.0940212
0.0999353
0.106462
0.113596
0.121353
0.129764
0.138878
0.148753
0.159447
0.171012
0.183467
0.196841
0.211125
0.226286
0.242267
0.259018
0.276485
0.294638
0.313448
0.332914
0.353042
0.373857
0.395381
0.417667
0.440787
0.464859
0.489878
0.515841
0.542915
0.571215
0.600842
0.631917
0.664571
0.698947
0.735185
0.77343
0.813832
0.856539
0.901682
0.949382
0.999759
1.05291
1.10888
1.16761
1.22905
1.29307
1.35954
1.42827
1.499
1.57141
1.64513
1.71968
1.79459
1.8693
1.94387
2.01826
2.09238
2.16669
2.24106
2.3155
2.39009
2.46477
2.53929
2.61374
2.68814
2.76223
2.83591
2.90909
2.98174
3.05386
3.12539
3.1963
3.26652
3.33603
3.40477
3.47269
3.53973
3.60583
3.67094
3.735
3.79798
3.85982
3.92047
3.97985
4.03784
4.09433
4.14923
4.20247
4.254
4.30373
4.35159
4.39749
4.44134
4.48308
4.52266
4.56005
4.59521
4.6281
4.6587
4.68697
4.71289
4.73643
4.75758
4.77637
4.7928
4.80689
4.81867
4.82815
4.83536
4.84036
4.84323
4.84406
4.84307
4.84029
4.83549
4.8288
4.8203
4.81006
4.79812
4.78454
4.76938
4.75271
4.73457
4.71503
4.69414
4.67195
4.64852
4.6239
4.59814
4.5713
4.54341
4.51455
4.48474
4.45405
4.42253
4.3902
4.35709
4.32326
4.28875
4.25358
4.21781
4.18147