/*--------------------------------*- C++ -*----------------------------------*\
  =========                 |
  \\      /  F ield         | OpenFOAM: The Open Source CFD Toolbox
   \\    /   O peration     | Website:  https://openfoam.org
    \\  /    A nd           | Version:  13
     \\/     M anipulation  |
\*---------------------------------------------------------------------------*/
FoamFile
{
    format      ascii;
    class       volScalarField;
    location    "1100";
    object      nut;
}
// * * * * * * * * * * * * * * * * * * * * * * * * * * * * * * * * * * * * * //

dimensions      [0 2 -1 0 0 0 0];

internalField   nonuniform List<scalar> 
12225
(
6.54552e-06
1.36428e-05
1.69986e-05
1.76217e-05
1.76598e-05
2.62128e-05
2.19514e-05
1.82305e-05
2.77108e-05
3.15818e-05
2.44381e-05
1.86607e-05
3.20063e-05
3.68974e-05
3.70635e-05
3.58144e-05
2.48667e-05
2.99212e-05
0.000209105
0.00011007
4.72978e-05
4.17246e-05
2.74209e-05
2.55814e-05
2.48042e-05
2.32359e-05
2.12581e-05
2.52762e-05
2.37868e-05
2.44814e-05
2.96441e-05
3.29336e-05
3.75093e-05
4.01641e-05
4.31434e-05
4.54761e-05
0.00103756
0.000147851
6.33142e-05
2.64401e-05
1.52974e-05
1.24172e-05
1.28087e-05
8.1156e-06
8.97962e-06
7.81055e-06
7.44592e-06
9.12653e-06
1.06138e-05
1.06923e-05
1.46638e-05
1.63831e-05
1.73758e-05
1.94624e-05
0.000120407
8.95878e-05
7.45916e-05
5.15659e-05
3.71533e-05
1.83268e-05
2.05043e-05
1.56037e-05
9.3824e-06
1.02611e-05
8.80709e-06
9.28809e-06
1.05157e-05
1.19627e-05
1.40044e-05
1.57848e-05
1.75166e-05
1.80867e-05
8.98939e-05
2.83514e-05
1.7958e-05
1.64136e-05
1.64344e-05
1.73608e-05
1.81821e-05
1.74635e-05
1.77934e-05
1.8553e-05
1.94563e-05
2.09873e-05
2.33199e-05
2.54588e-05
2.82188e-05
3.02463e-05
3.33966e-05
3.54274e-05
0.000175576
5.26521e-05
3.86696e-05
3.62481e-05
3.55887e-05
4.20072e-05
4.61458e-05
4.98754e-05
5.21963e-05
5.96368e-05
6.36429e-05
7.34732e-05
8.12219e-05
8.72405e-05
9.35853e-05
9.68912e-05
0.000102572
0.000104124
0.00034389
0.000140541
0.000116839
0.000107528
0.000138041
0.000118689
0.000125486
0.000150914
0.000146886
0.00015075
0.00015445
0.000167911
0.000168058
0.000170778
0.000181784
0.000189667
0.000198232
0.000201864
0.000465993
0.00365659
0.000407667
0.000319838
0.000370226
0.000299839
0.000306641
0.00035067
0.000376474
0.000380838
0.000380586
0.000374021
0.000376506
0.000353183
0.000348629
0.000348067
0.000348214
0.000341833
0.000875345
0.00141565
0.000890038
0.000646943
0.000567936
0.000600424
0.000528196
0.000566556
0.000590237
0.000592016
0.00058363
0.000572161
0.000559668
0.000546664
0.000532624
0.000522142
0.000509637
0.00049845
0.000917086
0.00092022
0.000872411
0.000792136
0.000750557
0.000761506
0.000714789
0.000724048
0.000735218
0.000734211
0.000725215
0.000714123
0.000701241
0.00069017
0.000675207
0.00066527
0.000649802
0.000639878
0.000859183
0.000861353
0.000856054
0.000844396
0.000830209
0.000822403
0.000821874
0.000806341
0.000807929
0.000807219
0.000802209
0.000795319
0.000787052
0.000779642
0.000769442
0.000761776
0.000751726
0.000739118
0.000852321
0.000851849
0.000849736
0.000847554
0.000844641
0.000842178
0.000840767
0.000838219
0.000837304
0.000834182
0.000831544
0.000828205
0.00082402
0.000819936
0.000814209
0.000810149
0.000803145
0.000798581
0.000851691
0.000850912
0.000849855
0.000848835
0.000847767
0.000846768
0.000846003
0.000844973
0.000844246
0.000843184
0.000841947
0.000840455
0.000838674
0.000836799
0.000834873
0.000832786
0.000830768
0.000827375
0.000851566
0.0008507
0.00084988
0.00084905
0.000848304
0.000847534
0.000846917
0.000846184
0.000845629
0.000844927
0.000844344
0.000843576
0.000842901
0.000841946
0.000841199
0.000840055
0.000839193
0.000837816
0.000851546
0.000850673
0.000849867
0.000849072
0.000848348
0.000847623
0.00084698
0.000846316
0.000845736
0.000845126
0.000844594
0.000844021
0.000843521
0.000842955
0.000842463
0.000841885
0.000841378
0.000840785
0.000851539
0.000850673
0.000849857
0.000849073
0.000848336
0.000847625
0.000846959
0.000846314
0.000845709
0.000845121
0.000844569
0.000844032
0.000843527
0.000843032
0.000842566
0.000842106
0.000841671
0.000841242
0.000851537
0.000850673
0.000849852
0.00084907
0.000848327
0.000847619
0.000846945
0.000846302
0.000845689
0.000845103
0.000844544
0.000844009
0.000843499
0.000843008
0.000842542
0.000842092
0.000841664
0.000841253
0.000851539
0.000850677
0.000849858
0.000849077
0.000848335
0.000847627
0.000846952
0.000846309
0.000845695
0.000845108
0.000844547
0.000844011
0.000843498
0.000843008
0.000842539
0.00084209
0.00084166
0.000841249
0.000851537
0.000850674
0.000849851
0.000849069
0.000848324
0.000847614
0.000846938
0.000846293
0.000845677
0.000845088
0.000844526
0.000843988
0.000843473
0.000842981
0.000842511
0.00084206
0.000841629
0.000841217
0.000851537
0.000850674
0.000849851
0.000849069
0.000848326
0.000847616
0.00084694
0.000846294
0.000845679
0.00084509
0.000844528
0.00084399
0.000843475
0.000842984
0.000842513
0.000842063
0.000841631
0.000841219
0.000851533
0.000850679
0.000849854
0.000849075
0.000848335
0.000847623
0.000846955
0.000846305
0.000845696
0.000845103
0.000844541
0.000844002
0.000843483
0.000842993
0.000842514
0.000842068
0.000841626
0.000841215
0.000851522
0.000850696
0.000849853
0.000849088
0.00084835
0.000847635
0.000846982
0.000846316
0.000845703
0.000845071
0.00084447
0.000843882
0.000843296
0.000842773
0.000842208
0.000841745
0.000841186
0.00084076
0.000851503
0.000850725
0.000849833
0.000849117
0.00084836
0.000847612
0.00084696
0.000846119
0.000845287
0.000844317
0.00084317
0.000842113
0.000840871
0.000839858
0.000838694
0.000837645
0.000836488
0.00083564
0.000851457
0.000850698
0.000849721
0.000849018
0.000847959
0.000846538
0.000845496
0.000842694
0.000840911
0.000836779
0.000832327
0.000828189
0.000823213
0.000818955
0.00081463
0.000809451
0.000806098
0.000802333
0.000850689
0.000850027
0.000847547
0.000845683
0.000840857
0.000834712
0.000828304
0.000818181
0.000806147
0.000790471
0.000774963
0.000761445
0.00074589
0.000735713
0.000723443
0.00071262
0.000707266
0.00069499
0.000841121
0.000840441
0.000819776
0.000813359
0.000790951
0.000767911
0.000739334
0.000706933
0.000675348
0.000639623
0.000613032
0.000585737
0.000564199
0.00054817
0.000531499
0.000513603
0.000506117
0.000503701
0.000741601
0.000775655
0.000678414
0.0006497
0.000587604
0.000535529
0.000486339
0.000442841
0.000404395
0.000372733
0.000345429
0.000326538
0.000310178
0.000299463
0.000288684
0.000281398
0.000272673
0.000266756
0.00039116
0.000457271
0.000353483
0.000288711
0.000239248
0.000206494
0.000180953
0.000162128
0.000147067
0.000136004
0.000126855
0.000120821
0.000114984
0.000111203
0.000107262
0.000104777
0.000101726
9.99692e-05
0.000100635
8.73046e-05
7.28871e-05
6.38791e-05
5.87897e-05
5.55896e-05
5.38301e-05
5.26748e-05
5.24561e-05
5.25783e-05
5.36308e-05
5.47805e-05
5.63948e-05
5.80224e-05
6.00698e-05
6.04247e-05
6.08889e-05
6.12555e-05
1.28875e-05
1.69371e-05
1.95989e-05
2.11241e-05
2.19792e-05
2.22074e-05
2.2201e-05
2.20339e-05
2.17153e-05
2.1369e-05
2.10226e-05
2.0694e-05
2.03924e-05
2.01224e-05
1.98806e-05
1.96736e-05
1.94925e-05
1.93356e-05
1.2692e-12
1.42075e-10
7.30448e-10
2.90472e-09
9.76533e-09
2.93733e-08
8.02277e-08
1.65836e-07
2.76156e-07
3.94874e-07
5.04354e-07
5.89819e-07
6.48886e-07
6.72018e-07
6.64251e-07
6.36923e-07
5.84821e-07
4.99961e-07
4.20604e-07
3.54425e-07
2.93133e-07
2.34436e-07
1.78707e-07
1.27577e-07
8.2915e-08
4.88189e-08
2.64729e-08
1.37986e-08
7.32183e-09
4.14284e-09
2.62536e-09
1.92459e-09
2.41445e-09
3.32922e-09
1.68165e-08
4.06012e-08
1.3203e-07
2.89907e-07
4.41781e-07
5.03639e-07
4.67013e-07
3.83141e-07
2.93549e-07
2.18032e-07
2.04185e-07
2.46482e-07
3.23562e-07
5.82571e-07
1.07282e-06
2.71786e-06
8.10254e-06
1.96831e-05
3.20738e-05
3.85026e-05
4.29671e-05
4.76373e-05
4.4222e-05
3.78857e-05
3.43028e-05
3.46919e-05
3.61948e-05
3.07011e-05
3.31021e-05
3.13925e-05
3.14969e-05
3.30665e-05
3.33316e-05
3.40837e-05
3.46055e-05
3.52304e-05
3.57797e-05
3.63695e-05
3.69217e-05
3.74906e-05
3.80417e-05
3.85973e-05
3.91449e-05
3.96912e-05
4.02332e-05
4.07715e-05
4.13067e-05
4.18372e-05
4.23641e-05
4.28862e-05
4.34035e-05
4.39168e-05
4.44239e-05
4.49275e-05
4.54239e-05
4.59166e-05
4.64037e-05
4.68846e-05
4.73597e-05
4.78273e-05
4.82894e-05
4.87445e-05
4.91952e-05
4.96412e-05
5.00856e-05
5.05299e-05
5.09773e-05
5.14334e-05
5.19033e-05
5.23808e-05
5.2862e-05
5.33531e-05
5.38507e-05
5.43597e-05
5.48773e-05
5.54068e-05
5.5947e-05
5.64991e-05
5.70639e-05
5.76404e-05
5.82313e-05
5.8834e-05
5.94527e-05
6.00833e-05
6.07296e-05
6.13878e-05
6.20634e-05
6.27541e-05
6.34654e-05
6.41915e-05
6.49382e-05
6.56978e-05
6.64764e-05
6.72638e-05
6.80628e-05
6.8885e-05
6.97502e-05
7.06424e-05
7.15668e-05
7.25227e-05
7.35253e-05
7.45858e-05
7.57242e-05
7.69083e-05
7.72985e-05
7.7112e-05
7.68939e-05
7.66752e-05
7.64427e-05
7.62049e-05
7.59513e-05
7.56964e-05
7.54316e-05
7.51604e-05
7.48821e-05
7.45963e-05
7.43035e-05
7.40027e-05
7.36996e-05
7.33769e-05
7.30643e-05
7.27249e-05
7.2402e-05
7.20465e-05
7.17153e-05
7.13462e-05
7.10104e-05
7.06331e-05
7.02829e-05
6.99075e-05
6.95372e-05
6.91595e-05
6.87788e-05
6.83936e-05
6.80054e-05
6.76138e-05
6.72196e-05
6.68225e-05
6.64222e-05
6.60174e-05
6.56043e-05
6.51753e-05
6.47211e-05
6.42129e-05
6.35841e-05
6.20146e-05
5.75158e-12
9.27483e-10
1.24505e-08
6.52606e-08
2.89348e-07
1.0106e-06
2.4751e-06
4.674e-06
7.37711e-06
1.04674e-05
1.36278e-05
1.65871e-05
1.91079e-05
2.09908e-05
2.20975e-05
2.24082e-05
2.2087e-05
2.13557e-05
1.89766e-05
1.59943e-05
1.23107e-05
9.01576e-06
6.32824e-06
4.23694e-06
2.67666e-06
1.65221e-06
1.02752e-06
6.453e-07
4.16923e-07
2.81915e-07
2.13828e-07
1.83166e-07
2.08251e-07
1.85882e-07
1.12832e-06
2.63481e-06
8.0578e-06
1.59046e-05
2.20213e-05
2.47351e-05
2.33024e-05
2.04657e-05
1.4779e-05
1.13306e-05
1.14902e-05
1.40661e-05
1.59406e-05
1.95911e-05
2.75337e-05
3.89032e-05
4.96696e-05
6.06866e-05
6.96844e-05
7.73126e-05
8.627e-05
9.7395e-05
0.000106996
0.000118336
0.00013009
0.000143222
0.000157947
0.000168639
0.000183265
0.00019441
0.000207647
0.000219409
0.000230698
0.000241434
0.000251968
0.000261941
0.000271744
0.000281103
0.000290297
0.000299181
0.000307906
0.000316416
0.000324788
0.000333005
0.000341109
0.000349094
0.000356988
0.00036479
0.000372518
0.00038017
0.000387761
0.00039529
0.00040277
0.000410204
0.000417601
0.000424954
0.000432279
0.000439548
0.000446777
0.000453934
0.000461025
0.000468009
0.000474875
0.000481567
0.000488048
0.000494237
0.000500058
0.000505414
0.000510199
0.000514783
0.000519224
0.00052352
0.000527661
0.000531648
0.000535472
0.000539133
0.000542625
0.000545948
0.000549097
0.000552074
0.000554873
0.000557499
0.000559948
0.000562225
0.000564327
0.000566258
0.000568018
0.000569618
0.000571066
0.000572369
0.000573531
0.000574556
0.000575451
0.000576221
0.00057687
0.00057738
0.000577709
0.000577898
0.00057796
0.000577863
0.000577605
0.000577032
0.000576885
0.000576288
0.000576136
0.000576274
0.000575983
0.000576158
0.000575659
0.000575496
0.000575032
0.000574493
0.000573874
0.000573172
0.000572388
0.000571517
0.000570559
0.0005695
0.000568343
0.000567201
0.000565691
0.000564388
0.000562661
0.00056121
0.000559261
0.000557644
0.000555519
0.000553671
0.000551466
0.000549301
0.000547015
0.000544657
0.000542198
0.00053966
0.000537023
0.000534304
0.00053149
0.000528588
0.000525584
0.000522468
0.000519198
0.000515683
0.000511804
0.000507279
0.000501185
0.000484854
1.41018e-11
2.36199e-09
4.41635e-08
2.77305e-07
1.11152e-06
2.62073e-06
5.75073e-06
1.01065e-05
1.55568e-05
2.18203e-05
2.85777e-05
3.52668e-05
4.13529e-05
4.64909e-05
5.0426e-05
5.29891e-05
5.45305e-05
5.49048e-05
5.36061e-05
5.08167e-05
4.63351e-05
4.04208e-05
3.33328e-05
2.61014e-05
1.96502e-05
1.39809e-05
9.62225e-06
6.43082e-06
4.24409e-06
2.86691e-06
2.08361e-06
1.65138e-06
1.64001e-06
2.05226e-06
6.43756e-06
1.66764e-05
3.78881e-05
5.63171e-05
6.72003e-05
6.84334e-05
6.08294e-05
4.41881e-05
3.55707e-05
3.5558e-05
4.29046e-05
5.09498e-05
6.12566e-05
7.47507e-05
8.74803e-05
0.000100566
0.000117538
0.000135498
0.000155607
0.000177806
0.000204251
0.000233781
0.000263853
0.000295543
0.000326474
0.00035494
0.000385542
0.000411578
0.000439755
0.000463828
0.000488529
0.000511857
0.000533993
0.000555365
0.00057595
0.000595821
0.000615166
0.000633938
0.000652315
0.000670267
0.000687902
0.000705219
0.000722279
0.000739092
0.000755693
0.000772095
0.00078832
0.000804378
0.000820285
0.000836047
0.000851674
0.00086717
0.000882543
0.000897791
0.000912916
0.00092791
0.000942767
0.000957465
0.000971988
0.000986305
0.00100039
0.00101421
0.00102772
0.00104089
0.00105367
0.00106602
0.00107793
0.00108939
0.00110043
0.00111118
0.00112162
0.00113174
0.00114151
0.00115094
0.00116
0.0011687
0.00117702
0.00118495
0.00119251
0.00119967
0.00120644
0.00121282
0.00121881
0.00122442
0.00122964
0.00123449
0.00123897
0.00124309
0.00124688
0.00125035
0.00125351
0.00125637
0.00125894
0.00126122
0.00126322
0.00126493
0.00126633
0.00126748
0.00126837
0.00126901
0.00126941
0.00126954
0.00126973
0.00126955
0.00126942
0.00126919
0.00126874
0.00126839
0.00126753
0.00126682
0.00126582
0.00126464
0.00126327
0.00126172
0.00125997
0.00125802
0.00125588
0.00125353
0.00125091
0.00124823
0.00124503
0.00124192
0.0012382
0.00123467
0.00123047
0.00122652
0.00122188
0.00121745
0.00121255
0.0012076
0.00120242
0.00119707
0.00119152
0.0011858
0.00117987
0.00117377
0.00116748
0.00116101
0.00115433
0.00114742
0.00114018
0.00113244
0.00112392
0.00111396
0.00110024
0.00107049
5.68386e-11
9.58699e-09
1.57581e-07
6.92863e-07
2.28327e-06
6.17831e-06
1.25136e-05
2.10113e-05
3.11976e-05
4.2061e-05
5.26756e-05
6.25575e-05
7.11755e-05
7.80013e-05
8.30891e-05
8.65551e-05
8.80881e-05
8.80985e-05
8.67029e-05
8.38697e-05
7.94682e-05
7.4045e-05
6.68494e-05
5.8108e-05
4.85299e-05
3.87315e-05
2.99127e-05
2.25046e-05
1.69374e-05
1.25756e-05
1.00037e-05
7.60728e-06
8.40148e-06
1.3098e-05
2.86213e-05
5.40865e-05
7.37925e-05
8.5994e-05
8.4326e-05
7.56958e-05
6.98036e-05
6.89765e-05
7.28717e-05
8.10726e-05
9.27242e-05
0.000107371
0.000119799
0.000140266
0.000162226
0.000189379
0.000220762
0.000255423
0.000293638
0.000334584
0.00037842
0.000423231
0.000467836
0.000512195
0.000554916
0.000595475
0.000635677
0.000672629
0.000710109
0.000744591
0.00077828
0.000810734
0.000841968
0.000872255
0.000901645
0.000930269
0.000958227
0.000985577
0.00101241
0.00103877
0.0010647
0.00109025
0.00111545
0.00114032
0.00116489
0.00118917
0.00121319
0.00123695
0.00126047
0.00128376
0.00130682
0.00132965
0.00135226
0.00137464
0.00139679
0.0014187
0.00144035
0.00146172
0.00148279
0.00150353
0.00152392
0.00154393
0.00156352
0.00158269
0.0016014
0.00161965
0.00163743
0.00165475
0.00167161
0.00168804
0.001704
0.00171948
0.00173445
0.0017489
0.00176282
0.00177618
0.00178899
0.00180122
0.00181289
0.00182398
0.00183449
0.00184442
0.00185379
0.00186258
0.00187082
0.0018785
0.00188564
0.00189226
0.00189838
0.00190403
0.00190921
0.00191394
0.00191823
0.00192209
0.00192553
0.00192856
0.00193117
0.0019334
0.00193526
0.00193677
0.00193795
0.00193879
0.00193944
0.00193976
0.0019396
0.00193946
0.00193902
0.00193843
0.00193739
0.00193624
0.00193478
0.00193303
0.001931
0.00192867
0.00192605
0.00192312
0.00191989
0.00191636
0.00191244
0.00190831
0.00190366
0.00189886
0.00189349
0.00188802
0.00188197
0.00187586
0.00186919
0.00186243
0.00185525
0.00184786
0.00184018
0.00183223
0.00182401
0.00181552
0.00180676
0.00179775
0.00178847
0.00177894
0.00176913
0.001759
0.00174843
0.00173721
0.00172496
0.00171082
0.00169155
0.00165608
1.95047e-10
2.99043e-08
3.63559e-07
1.72095e-06
5.90638e-06
1.44775e-05
2.71442e-05
4.26334e-05
5.91061e-05
7.49308e-05
8.89284e-05
0.000100225
0.000108468
0.000114484
0.00011802
0.000119756
0.000119852
0.000118492
0.000115861
0.000112063
0.000106912
0.000101044
9.39085e-05
8.55151e-05
7.57167e-05
6.47577e-05
5.35674e-05
4.33003e-05
3.48574e-05
2.82206e-05
2.25749e-05
2.169e-05
2.63617e-05
4.50784e-05
7.26014e-05
8.97876e-05
9.67283e-05
9.79286e-05
9.70173e-05
9.76087e-05
0.000101923
0.000110512
0.000124147
0.000135233
0.000149106
0.000171756
0.000199874
0.000232423
0.0002702
0.00031344
0.000359996
0.000409694
0.000461733
0.00051526
0.000569675
0.000623715
0.000676859
0.000728865
0.000778938
0.000827231
0.000874432
0.000919633
0.000963807
0.00100597
0.00104705
0.00108688
0.00112557
0.00116329
0.0012001
0.00123613
0.00127145
0.00130612
0.00134022
0.00137378
0.00140685
0.00143946
0.00147165
0.00150342
0.0015348
0.0015658
0.00159644
0.00162672
0.00165666
0.00168626
0.00171552
0.00174445
0.00177304
0.0018013
0.0018292
0.00185675
0.00188393
0.00191072
0.0019371
0.00196306
0.00198857
0.00201361
0.00203817
0.00206224
0.00208581
0.00210886
0.0021314
0.00215341
0.00217487
0.00219578
0.0022161
0.00223581
0.00225488
0.00227331
0.00229107
0.00230814
0.00232453
0.00234021
0.00235518
0.00236944
0.00238299
0.00239582
0.00240796
0.00241939
0.00243013
0.00244018
0.00244957
0.00245831
0.00246643
0.00247394
0.00248087
0.00248722
0.00249302
0.00249826
0.00250298
0.00250717
0.00251086
0.00251407
0.00251681
0.00251908
0.00252102
0.00252265
0.00252379
0.0025243
0.00252439
0.00252432
0.00252391
0.00252319
0.00252207
0.00252066
0.00251888
0.00251673
0.00251421
0.00251132
0.00250805
0.0025044
0.00250036
0.00249594
0.00249109
0.00248587
0.00248016
0.00247411
0.00246754
0.00246065
0.00245325
0.00244557
0.00243741
0.00242897
0.00242013
0.00241097
0.00240147
0.00239164
0.00238147
0.00237097
0.00236015
0.00234901
0.00233757
0.00232581
0.00231371
0.00230124
0.00228829
0.00227465
0.00225992
0.00224322
0.00222113
0.00218513
6.10756e-10
7.40515e-08
8.87329e-07
4.47098e-06
1.5014e-05
3.23366e-05
5.36879e-05
7.63115e-05
9.70863e-05
0.00011407
0.000126853
0.000136374
0.000142461
0.00014576
0.000146967
0.000146533
0.000144765
0.000141859
0.000137947
0.000133041
0.000127134
0.00012064
0.00011311
0.00010445
9.43069e-05
7.9065e-05
6.43931e-05
5.06031e-05
3.85205e-05
3.15425e-05
3.27182e-05
4.38742e-05
6.63202e-05
8.92272e-05
0.000105414
0.000114704
0.000118811
0.000121684
0.000127186
0.000137514
0.000151632
0.000160432
0.000174861
0.000198858
0.000227544
0.000263235
0.000304865
0.000351748
0.000403312
0.000458349
0.000515579
0.000574687
0.000634793
0.000695253
0.000755502
0.000814867
0.000873122
0.00092967
0.0009847
0.00103874
0.00109114
0.0011419
0.00119133
0.00123927
0.00128606
0.00133169
0.00137627
0.00141991
0.00146268
0.00150466
0.00154593
0.00158654
0.00162654
0.00166596
0.00170484
0.0017432
0.00178105
0.0018184
0.00185528
0.00189168
0.00192761
0.00196309
0.0019981
0.00203267
0.00206678
0.00210044
0.00213365
0.0021664
0.0021987
0.00223053
0.00226188
0.00229275
0.00232313
0.00235299
0.00238234
0.00241115
0.00243941
0.00246712
0.00249427
0.00252084
0.00254684
0.00257223
0.002597
0.00262112
0.00264456
0.00266731
0.00268935
0.00271065
0.0027312
0.00275098
0.00276999
0.00278822
0.00280565
0.00282228
0.00283812
0.00285316
0.0028674
0.00288086
0.00289353
0.00290543
0.00291658
0.00292699
0.00293668
0.00294567
0.00295399
0.00296164
0.00296863
0.00297499
0.00298073
0.00298587
0.00299042
0.00299442
0.00299788
0.00300086
0.00300358
0.00300554
0.00300695
0.00300771
0.00300809
0.00300811
0.00300773
0.00300695
0.00300574
0.00300415
0.00300213
0.0029997
0.00299683
0.00299354
0.00298982
0.00298567
0.00298109
0.00297606
0.00297058
0.00296466
0.00295825
0.0029514
0.00294405
0.00293628
0.00292803
0.00291939
0.00291029
0.00290082
0.00289094
0.00288069
0.00287006
0.00285906
0.00284768
0.00283594
0.00282383
0.00281138
0.00279859
0.00278547
0.002772
0.00275816
0.00274384
0.00272887
0.00271291
0.00269513
0.0026728
0.00263848
1.91714e-09
1.85143e-07
2.32739e-06
1.23106e-05
3.32698e-05
6.08714e-05
8.88367e-05
0.000112089
0.00013008
0.000143535
0.00015355
0.00015993
0.000163625
0.000165149
0.000164946
0.000163319
0.000160506
0.000156697
0.000151945
0.00014625
0.000139759
0.000132383
0.000123763
0.000106881
9.12138e-05
7.75601e-05
6.57665e-05
5.67363e-05
5.3275e-05
5.96912e-05
7.31967e-05
9.67618e-05
0.00011815
0.000131142
0.000139687
0.000145733
0.000152251
0.000162863
0.000176204
0.000183801
0.000197757
0.000220678
0.000248393
0.000284191
0.000325777
0.000374085
0.00042739
0.000484632
0.000544797
0.000606896
0.000670233
0.000734369
0.000798704
0.000862785
0.000926256
0.000988364
0.0010494
0.00110966
0.00116828
0.0012256
0.00128155
0.00133611
0.00138943
0.0014415
0.00149248
0.00154242
0.00159139
0.00163948
0.00168676
0.00173329
0.00177912
0.00182429
0.00186883
0.00191278
0.00195613
0.00199891
0.00204111
0.00208274
0.00212379
0.00216428
0.00220419
0.00224354
0.00228231
0.00232051
0.00235815
0.00239522
0.00243172
0.00246767
0.00250305
0.00253787
0.00257213
0.00260582
0.00263895
0.0026715
0.00270347
0.00273486
0.00276566
0.00279585
0.00282542
0.00285436
0.00288263
0.00291023
0.00293716
0.00296339
0.00298891
0.00301369
0.00303771
0.00306096
0.00308343
0.00310508
0.00312593
0.00314595
0.00316513
0.0031835
0.00320103
0.00321771
0.00323355
0.00324855
0.0032627
0.00327602
0.00328852
0.00330021
0.00331112
0.00332126
0.00333065
0.00333929
0.00334721
0.00335442
0.00336094
0.00336678
0.00337197
0.00337655
0.0033806
0.00338422
0.00338716
0.00338938
0.00339099
0.00339196
0.00339247
0.00339253
0.00339215
0.00339133
0.00339005
0.00338832
0.00338613
0.00338349
0.0033804
0.00337684
0.00337284
0.00336838
0.00336346
0.00335808
0.00335224
0.00334593
0.00333914
0.00333187
0.00332413
0.00331592
0.00330725
0.00329815
0.0032886
0.00327865
0.00326828
0.00325752
0.00324636
0.00323481
0.00322287
0.00321054
0.00319783
0.00318476
0.00317135
0.00315759
0.0031435
0.00312905
0.00311417
0.00309874
0.00308248
0.0030647
0.00304328
0.00301219
5.73324e-09
4.82353e-07
6.11914e-06
2.70646e-05
5.93591e-05
9.32984e-05
0.000122105
0.000144212
0.00015978
0.000170015
0.000175634
0.000178246
0.000178752
0.000177744
0.000175621
0.000172638
0.000168785
0.000163945
0.000158107
0.000151293
0.0001436
0.000132909
0.000115249
9.9531e-05
8.57893e-05
7.46311e-05
6.92986e-05
7.31749e-05
8.13012e-05
9.86655e-05
0.000124228
0.000148286
0.000166732
0.000174519
0.000181848
0.000191962
0.000198552
0.000205354
0.000217975
0.000238293
0.000264126
0.000297829
0.000337517
0.000384283
0.000436511
0.000493795
0.000554451
0.000617526
0.000682256
0.000748013
0.000814345
0.000880862
0.000947181
0.00101271
0.00107735
0.00114155
0.00120452
0.00126637
0.00132692
0.00138625
0.00144437
0.00150129
0.0015571
0.00161184
0.00166558
0.00171839
0.00177034
0.00182148
0.00187187
0.00192156
0.0019706
0.002019
0.00206678
0.00211395
0.00216052
0.00220645
0.00225176
0.00229642
0.00234044
0.00238379
0.00242646
0.00246847
0.00250979
0.00255044
0.00259041
0.00262972
0.00266836
0.00270633
0.00274366
0.00278034
0.0028164
0.00285183
0.00288664
0.00292084
0.00295442
0.00298738
0.00301972
0.00305144
0.00308252
0.00311295
0.00314268
0.00317175
0.00320015
0.00322786
0.00325485
0.00328111
0.00330663
0.00333136
0.00335531
0.00337845
0.00340076
0.00342223
0.00344285
0.00346262
0.00348151
0.00349952
0.00351665
0.0035329
0.00354827
0.00356276
0.00357638
0.00358915
0.00360108
0.00361217
0.00362246
0.00363194
0.00364064
0.00364856
0.00365574
0.00366218
0.0036679
0.00367303
0.00367763
0.00368155
0.00368477
0.00368724
0.00368905
0.00369026
0.00369092
0.00369102
0.00369064
0.00368977
0.0036884
0.00368656
0.00368423
0.00368142
0.00367814
0.00367439
0.00367018
0.0036655
0.00366036
0.00365477
0.0036487
0.00364217
0.00363517
0.00362769
0.00361974
0.00361134
0.00360248
0.00359318
0.00358346
0.00357332
0.00356276
0.00355181
0.00354046
0.00352871
0.00351656
0.00350401
0.00349108
0.00347779
0.00346414
0.00345017
0.00343587
0.00342123
0.00340624
0.00339078
0.00337467
0.00335743
0.00333743
0.0033102
1.51131e-08
1.18815e-06
1.41447e-05
4.67211e-05
8.54318e-05
0.000119693
0.000146583
0.000166399
0.000179109
0.000186083
0.000189142
0.000189336
0.00018758
0.000184538
0.000180611
0.000175947
0.000170502
0.000164408
0.000157732
0.000150395
0.000140262
0.000124708
0.000112031
0.000103421
0.00010068
9.92328e-05
9.79397e-05
0.000106809
0.000125536
0.000147516
0.000169131
0.000187353
0.000200943
0.000209437
0.000215945
0.000223756
0.000235033
0.000252609
0.000275954
0.000306506
0.000343289
0.000386785
0.000435956
0.000490691
0.00054967
0.000611964
0.000676368
0.000742197
0.00080893
0.000876143
0.000943502
0.00101065
0.00107704
0.0011431
0.00120848
0.00127295
0.00133634
0.00139864
0.0014598
0.00151986
0.00157883
0.00163676
0.00169369
0.00174968
0.0018048
0.0018591
0.00191265
0.00196548
0.00201765
0.0020692
0.00212017
0.00217055
0.00222036
0.00226959
0.00231821
0.0023662
0.00241351
0.00246013
0.00250604
0.0025512
0.00259561
0.00263925
0.00268212
0.00272421
0.00276553
0.0028061
0.00284595
0.00288511
0.00292354
0.00296124
0.00299825
0.00303457
0.00307022
0.00310522
0.00313956
0.00317327
0.00320634
0.00323878
0.0032706
0.00330179
0.00333236
0.0033623
0.00339158
0.0034202
0.00344814
0.00347538
0.00350188
0.00352764
0.00355263
0.00357683
0.00360022
0.00362279
0.00364451
0.00366537
0.00368536
0.00370446
0.00372267
0.00373998
0.00375638
0.00377188
0.00378648
0.00380018
0.003813
0.00382494
0.00383603
0.00384626
0.00385566
0.00386423
0.00387201
0.00387899
0.00388525
0.00389086
0.00389584
0.00390009
0.00390356
0.00390632
0.00390837
0.0039098
0.00391062
0.00391086
0.00391057
0.00390974
0.00390841
0.00390656
0.00390423
0.00390141
0.00389811
0.00389435
0.00389013
0.00388545
0.00388033
0.00387476
0.00386875
0.00386229
0.00385537
0.00384801
0.0038402
0.00383196
0.00382329
0.00381421
0.00380472
0.00379483
0.00378455
0.00377388
0.00376282
0.00375136
0.00373952
0.00372728
0.00371466
0.00370169
0.00368837
0.00367473
0.00366078
0.00364652
0.00363196
0.00361702
0.00360159
0.00358531
0.00356669
0.00354309
3.43076e-08
2.75392e-06
2.61072e-05
6.93569e-05
0.000113309
0.000148411
0.000172808
0.000187712
0.000196087
0.000199146
0.0001983
0.000195001
0.000190261
0.000184726
0.000178713
0.000172298
0.0001653
0.000157828
0.00014948
0.00014079
0.000131262
0.000121852
0.000113169
0.00010781
0.000108326
0.000116296
0.00013084
0.000148959
0.000168367
0.000187149
0.000203525
0.000216072
0.000225961
0.000236371
0.000248324
0.000264213
0.000284875
0.000312006
0.000345303
0.000384878
0.000430073
0.000480681
0.000535965
0.000595325
0.000657689
0.000722163
0.000787945
0.000854533
0.000921553
0.000988705
0.00105542
0.00112171
0.00118783
0.00125317
0.00131768
0.00138124
0.00144379
0.00150529
0.00156575
0.0016252
0.00168365
0.00174116
0.0017978
0.00185365
0.00190876
0.0019632
0.00201703
0.00207029
0.00212295
0.00217514
0.00222687
0.00227814
0.00232892
0.0023792
0.00242895
0.00247819
0.00252693
0.00257493
0.00262213
0.00266851
0.00271402
0.00275867
0.00280243
0.0028453
0.00288728
0.0029284
0.00296865
0.00300801
0.00304658
0.00308439
0.00312148
0.00315787
0.00319358
0.00322866
0.0032631
0.00329693
0.00333017
0.00336283
0.00339491
0.00342644
0.00345739
0.00348775
0.00351753
0.00354669
0.00357522
0.0036031
0.00363032
0.00365683
0.00368263
0.00370768
0.00373197
0.00375546
0.00377814
0.00379998
0.00382096
0.00384107
0.00386029
0.00387861
0.00389601
0.00391249
0.00392805
0.00394269
0.00395642
0.00396923
0.00398114
0.00399216
0.00400229
0.00401156
0.00401997
0.00402757
0.0040344
0.00404053
0.00404591
0.00405054
0.00405438
0.00405748
0.00405986
0.00406155
0.00406261
0.00406306
0.00406293
0.00406225
0.00406104
0.00405931
0.00405708
0.00405436
0.00405118
0.00404754
0.00404345
0.00403893
0.00403398
0.00402861
0.00402282
0.00401661
0.00400998
0.00400293
0.00399548
0.00398763
0.00397939
0.00397077
0.00396178
0.00395241
0.00394268
0.00393259
0.00392212
0.00391128
0.00390005
0.00388845
0.00387649
0.00386417
0.00385152
0.00383855
0.0038253
0.00381177
0.00379796
0.00378386
0.00376938
0.00375423
0.00373727
0.00371753
6.68002e-08
5.73762e-06
3.94951e-05
8.861e-05
0.000134153
0.000168868
0.000191471
0.000203513
0.00020769
0.000206541
0.000201978
0.000195393
0.000187734
0.000179643
0.000171122
0.000162856
0.000154387
0.000146138
0.00013845
0.00013197
0.000126301
0.000122675
0.000123576
0.000129383
0.000139772
0.000153828
0.000170098
0.000187131
0.000203588
0.000218045
0.000230422
0.000242964
0.000256898
0.000272637
0.000291721
0.0003158
0.000345433
0.000380894
0.000421789
0.000467802
0.000518427
0.000573261
0.000631682
0.000693
0.000756374
0.00082108
0.000886552
0.000952399
0.00101826
0.00108361
0.00114887
0.00121356
0.00127763
0.00134084
0.0014031
0.00146435
0.00152459
0.00158381
0.00164206
0.00169938
0.00175582
0.00181135
0.00186618
0.0019204
0.0019741
0.00202735
0.00208023
0.00213288
0.00218551
0.00223789
0.00228993
0.00234161
0.00239289
0.00244372
0.00249407
0.00254383
0.00259288
0.00264119
0.00268867
0.00273529
0.00278104
0.00282586
0.00286974
0.00291266
0.00295464
0.0029957
0.00303586
0.00307517
0.00311365
0.00315135
0.00318829
0.00322452
0.00326007
0.00329498
0.00332928
0.00336299
0.00339615
0.00342877
0.00346086
0.00349244
0.00352352
0.00355407
0.00358411
0.00361361
0.00364256
0.00367095
0.00369874
0.0037259
0.00375242
0.00377826
0.00380339
0.00382778
0.00385141
0.00387424
0.00389625
0.0039174
0.00393769
0.00395709
0.00397557
0.00399313
0.00400975
0.00402544
0.00404019
0.00405399
0.00406686
0.0040788
0.0040898
0.0040999
0.00410911
0.00411745
0.00412498
0.00413172
0.00413767
0.00414283
0.0041472
0.00415079
0.0041536
0.00415569
0.00415711
0.00415789
0.00415807
0.00415767
0.00415672
0.00415524
0.00415325
0.00415078
0.00414784
0.00414446
0.00414065
0.00413642
0.00413179
0.00412677
0.00412136
0.00411555
0.00410937
0.0041028
0.00409587
0.00408858
0.00408095
0.00407297
0.00406467
0.00405603
0.00404706
0.00403776
0.00402811
0.00401811
0.00400774
0.00399702
0.00398595
0.00397454
0.0039628
0.00395077
0.00393845
0.00392588
0.00391306
0.00389999
0.00388664
0.00387278
0.00385743
0.00384111
1.09359e-07
1.02114e-05
5.56438e-05
0.000112283
0.000158711
0.000190349
0.000208384
0.00021591
0.000216003
0.000211182
0.000203371
0.000193929
0.000183626
0.000173284
0.000163592
0.00015479
0.000147305
0.000141614
0.000138262
0.000137046
0.000138763
0.000143811
0.00015183
0.000162572
0.000175543
0.000189981
0.000204981
0.000219343
0.000232565
0.000246029
0.000261375
0.00027816
0.000296676
0.000318786
0.000345363