/*--------------------------------*- C++ -*----------------------------------*\
  =========                 |
  \\      /  F ield         | OpenFOAM: The Open Source CFD Toolbox
   \\    /   O peration     | Website:  https://openfoam.org
    \\  /    A nd           | Version:  13
     \\/     M anipulation  |
\*---------------------------------------------------------------------------*/
FoamFile
{
    format      ascii;
    class       volScalarField;
    location    "1100";
    object      omega;
}
// * * * * * * * * * * * * * * * * * * * * * * * * * * * * * * * * * * * * * //

dimensions      [0 0 -1 0 0 0 0];

internalField   nonuniform List<scalar> 
12225
(
31477.7
40144.1
41097.1
38681.5
39604.6
31477.7
44267.8
41098.8
31477.7
31477.7
44803.3
41286.7
31477.7
31477.7
31477.7
31477.7
37003.2
31477.7
1852.07
3773.16
8161.42
10618
16052.1
17638.1
18738.7
19617
19506.7
17847.8
18614.6
19668
19051.3
18603.3
18776.8
18290.4
18044
17782.6
0.377681
2298.69
3654.16
5567.94
5853.72
6591.05
6530.76
7843.58
6960.3
7039.5
7254.26
7422.08
8353.87
10268.5
9033.14
9813.28
10133
10257
3142.33
3656.05
3512.82
3438.31
3314.33
4940.87
3653.56
3866.37
5843.56
4841.43
5702.15
6245.31
6186.14
6036.37
5710.95
5528.15
5233.1
5126.24
4254.43
10966.1
13534.4
12138.6
10532.5
8591.16
7694.16
7060.13
6664.59
6188.64
5821.8
5380.5
4884.17
4512.21
4135.18
3909.84
3594.79
3419.49
2193.89
6287.07
7797
7632.75
7235.41
5994.17
5031.84
4520.33
4205.36
3853.84
3479.98
3127.82
2831.01
2657.01
2469.65
2344.28
2184.71
2086.36
1106.97
2492.13
2890.51
3077.35
2340.81
2676.76
2495.23
2055.59
2083.08
2008.22
1939.86
1766.06
1751.33
1698.85
1581.6
1485.32
1405.36
1348.38
805.153
99.5904
873.19
1101.87
941.015
1149.15
1113.94
966.446
893.243
874.541
868.143
874.504
862.069
907.8
911.416
899.488
890.751
893.231
428.079
261.095
410.403
559.136
631.186
592.584
668.733
619.297
590.817
584.853
589.493
596.725
606.076
615.087
626.736
632.934
643.776
651.416
408.034
403.456
422.188
461.512
483.693
473.736
501.635
492.312
482.244
480.14
483.522
488.111
494.381
499.069
507.208
511.172
520.417
524.699
435.2
431.356
431.29
434.564
439.401
441.079
439.048
445.167
442.143
440.354
441.047
442.684
445.263
447.216
451.025
453.172
457.174
462.521
438.618
436.19
434.705
433.342
432.48
431.472
430.061
429.283
427.796
427.459
426.976
426.832
427.219
427.495
428.757
429.052
431.133
431.767
438.926
436.663
434.678
432.782
431.038
429.355
427.673
426.201
424.686
423.395
422.282
421.325
420.592
419.905
419.334
418.821
418.398
418.618
438.988
436.765
434.66
432.68
430.782
429.003
427.26
425.665
424.082
422.649
421.243
419.989
418.766
417.725
416.653
415.808
414.902
414.27
438.997
436.777
434.658
432.66
430.747
428.947
427.212
425.586
424.013
422.541
421.114
419.782
418.488
417.292
416.125
415.057
414.016
413.068
439
436.774
434.657
432.65
430.741
428.929
427.202
425.562
423.998
422.511
421.092
419.742
418.451
417.224
416.05
414.934
413.868
412.854
439
436.772
434.655
432.645
430.735
428.92
427.192
425.549
423.984
422.494
421.073
419.72
418.428
417.197
416.021
414.9
413.828
412.807
438.999
436.769
434.65
432.638
430.726
428.908
427.179
425.533
423.966
422.474
421.052
419.696
418.403
417.17
415.992
414.87
413.796
412.773
439
436.771
434.653
432.642
430.73
428.912
427.183
425.538
423.971
422.478
421.055
419.699
418.405
417.172
415.994
414.871
413.797
412.773
439.001
436.772
434.655
432.645
430.734
428.918
427.189
425.545
423.978
422.487
421.064
419.709
418.415
417.183
416.005
414.882
413.809
412.786
439.003
436.771
434.658
432.648
430.738
428.925
427.196
425.555
423.989
422.501
421.081
419.727
418.439
417.205
416.035
414.909
413.845
412.819
439.01
436.766
434.665
432.652
430.744
428.937
427.204
425.577
424.014
422.549
421.15
419.823
418.57
417.355
416.229
415.115
414.106
413.089
439.02
436.759
434.683
432.654
430.76
428.981
427.253
425.72
424.263
422.963
421.824
420.725
419.788
418.815
417.98
417.15
416.423
415.597
439.045
436.783
434.755
432.739
431.014
429.601
428.074
427.515
426.49
426.736
427.213
427.638
428.584
429.262
430.049
431.358
431.743
432.398
439.44
437.16
435.919
434.568
434.829
435.92
437.151
440.395
444.736
451.341
458.178
464.257
471.953
476.64
482.919
488.488
490.404
497.276
444.471
442.334
450.99
452.408
463.006
474.681
490.352
509.829
530.281
556.359
576.968
600.573
620.381
635.667
652.782
672.672
679.599
679.887
504.78
480.63
547.111
569.632
627.321
685.103
749.258
816.058
885.264
951.66
1017.71
1068.91
1117.7
1150.99
1187.4
1211.66
1243.17
1263.24
969.518
829.484
1074.64
1321.14
1592.56
1838.23
2078.91
2291.08
2491.78
2660.25
2818.19
2937.44
3058.98
3146.06
3242.52
3311.96
3396.35
3456.68
4181.54
4975.92
6219
7347.98
8266.98
8932.61
9405.53
9740.28
9936.05
10060.6
10071.5
10061.8
10034.1
9980.84
9930.89
9884.27
9862.23
9845.13
18117.5
23707.8
25473.7
26380.7
26789.3
26757.4
26646.6
26377.3
26055.3
25720.5
25394.8
25089.9
24810.6
24559
24332.5
24133.5
23955.2
23797.7
11463.2
2514.24
2516.41
2518.61
2520.83
2523.07
2525.32
2527.6
2529.9
2532.22
2534.57
2536.93
2539.31
2541.72
2544.15
2546.6
2549.08
2551.57
2554.09
2556.64
2559.2
2561.79
2564.41
2567.05
2569.71
2572.4
2575.12
2577.86
2580.62
2583.41
2586.23
2589.08
2591.95
2594.85
2597.77
2600.73
2603.71
2606.72
2609.76
2612.82
2615.92
2619.05
2622.2
2625.39
2628.61
2631.86
2635.14
2638.45
2641.79
2645.17
2648.58
2652.02
2655.5
2659.01
2662.55
2666.13
2669.74
2673.39
3215.04
3315.53
2684.56
3281.41
3331.07
3459.57
3275.35
3433.05
3502.7
3586.32
3660.64
3736.9
3807.21
3878.2
3945.64
4012.63
4077.54
4141.54
4204.19
4265.82
4326.4
4385.95
4444.6
4502.25
4559.01
4614.82
4669.66
4723.62
4776.51
4828.55
4879.41
4929.29
4977.96
5025.43
5071.65
5116.5
5159.96
5201.95
5242.46
5281.52
5319.16
5355.58
5390.85
5425.39
5459.23
5491.93
5523.49
5554.09
5583.55
5612.01
5639.4
5665.74
5691.07
5715.32
5738.63
5760.82
5782.13
5802.32
5821.7
5839.99
5857.47
5873.84
5889.43
5904.05
5917.99
5931
5943.33
5954.62
5965.1
5974.29
5982.05
5988.2
5995.44
6002.04
6008.04
6013.37
6018.27
6023.26
6028.6
6034.68
6035.51
6036.89
6038.15
6039.73
6039.51
6039.39
6037.29
6035.08
6032.05
6028.44
6024.15
6019.22
6013.66
6007.53
6000.52
5993.29
5984.93
5976.59
5966.96
5957.65
5946.94
5936.89
5925.48
5914.82
5902.73
5891
5878.6
5866.03
5853.09
5839.93
5826.5
5812.91
5799.15
5785.25
5771.16
5756.75
5741.76
5725.49
5707.12
5684.07
5650.15
5529.2
11463.2
1997.17
1001.02
823.536
705.83
604.007
606.631
607.356
601.405
582.836
561.402
538.87
518.367
501.328
489.853
481.646
481.616
482.179
511.949
556.955
639.93
741.024
849.685
958.167
1050.43
1124.43
1152.91
1145.44
1096.42
1015.47
897.653
754.735
640.584
562.136
495.377
457.372
448.971
454.975
471.63
499.394
526.447
569.081
663.122
771.389
866.561
1014.07
1314.34
1627.81
1838.64
1972.93
2038.75
2057.26
2046.55
2023.58
1973.49
1906.51
1852.1
1801.21
1773.35
1736.26
1684.67
1687.31
1654.13
1652.02
1637.12
1635.19
1633.76
1635.87
1638.07
1642.93
1647.82
1654.53
1661.37
1669.23
1677.29
1685.88
1694.62
1703.61
1712.68
1721.82
1730.94
1740.02
1749
1757.86
1766.55
1775.05
1783.3
1791.3
1798.95
1806.33
1813.3
1820
1826.29
1832.29
1837.92
1843.33
1848.5
1853.61
1858.74
1864.15
1870.04
1876.72
1884.52
1892.29
1899.86
1907.22
1914.4
1921.37
1928.17
1934.78
1941.21
1947.46
1953.53
1959.42
1965.15
1970.7
1976.08
1981.29
1986.33
1991.19
1995.9
2000.45
2004.84
2009.07
2013.1
2016.93
2020.55
2023.93
2027.09
2030.09
2033.12
2036.01
2038.73
2041.34
2043.82
2046.32
2048.64
2050.68
2051.47
2051.96
2052.44
2052.18
2053.01
2052.32
2051.92
2051.39
2050.66
2049.73
2048.62
2047.31
2045.82
2044.17
2042.38
2040
2038.39
2035.54
2033.66
2030.34
2028.28
2024.62
2022.37
2018.69
2015.85
2012.45
2009.06
2005.53
2001.94
1998.25
1994.51
1990.71
1986.88
1983.04
1979.2
1975.38
1971.59
1967.94
1964.53
1961.8
1959.07
1967.04
11463.2
2018.35
811.875
599.932
618.679
643.878
630.648
585.536
530.891
477.277
428.54
387.932
355.657
330.092
310.294
294.988
284.195
276.105
273.355
275.625
285.28
303.806
335.408
379.96
433.197
494.976
551.542
600.263
619.584
614.055
595.708
547.882
488.808
423.229
376.825
365.206
371.177
386.083
407.28
447.561
520.389
629.367
786.756
990.803
1163.45
1303.18
1434.5
1516.97
1541.36
1536.26
1489.27
1436.77
1378.86
1326.58
1272.98
1225.29
1187.82
1155.42
1131.88
1118.4
1100.61
1096.72
1086.69
1086.33
1083.88
1083.28
1084.28
1085.98
1088.44
1091.57
1095.06
1099.03
1103.2
1107.66
1112.25
1116.99
1121.79
1126.65
1131.53
1136.41
1141.26
1146.07
1150.81
1155.48
1160.06
1164.54
1168.91
1173.16
1177.3
1181.32
1185.23
1189.06
1192.79
1196.47
1200.1
1203.72
1207.35
1211.05
1214.82
1218.71
1222.73
1226.86
1231.04
1235.11
1239.08
1242.96
1246.74
1250.42
1254.01
1257.51
1260.91
1264.22
1267.43
1270.54
1273.56
1276.48
1279.3
1282.02
1284.63
1287.15
1289.56
1291.88
1294.09
1296.19
1298.17
1300.04
1301.79
1303.41
1304.92
1306.33
1307.67
1308.9
1310.02
1311.05
1311.96
1312.8
1313.45
1313.92
1314.05
1314.02
1314.01
1313.77
1313.67
1313.11
1312.51
1311.8
1310.95
1309.98
1308.88
1307.66
1306.32
1304.84
1303.32
1301.52
1299.88
1297.83
1296.03
1293.75
1291.8
1289.31
1287.2
1284.62
1282.21
1279.61
1276.96
1274.23
1271.45
1268.61
1265.73
1262.81
1259.87
1256.91
1253.98
1251.09
1248.31
1245.76
1243.63
1242.45
1242.96
1252.46
11463.2
2031.81
953.094
895.326
865.172
754.948
647.598
547.711
465.547
403.251
356.264
319.171
289.93
267.329
249.995
236.797
226.907
219.681
214.847
212.561
213.372
216.227
224.038
238.033
258.835
287.635
321.118
356.341
386.622
406.229
408.128
402.362
378.746
375.709
405.865
468.301
514.28
553.648
603.107
677.231
792.139
936.329
1058.55
1136.26
1202.92
1251.15
1268.92
1227.75
1192.06
1143.31
1093.29
1048.3
1008.21
974.794
945.478
922.022
903.957
889.542
879.427
873.234
867.696
866.231
863.529
863.838
864.422
865.662
867.591
869.934
872.671
875.705
878.965
882.428
886.025
889.743
893.54
897.4
901.297
905.215
909.136
913.049
916.94
920.8
924.621
928.395
932.118
935.786
939.396
942.947
946.439
949.885
953.287
956.657
960
963.325
966.641
969.958
973.283
976.62
979.967
983.32
986.666
989.987
993.258
996.451
999.572
1002.62
1005.59
1008.48
1011.3
1014.03
1016.69
1019.26
1021.75
1024.16
1026.48
1028.71
1030.85
1032.89
1034.85
1036.7
1038.47
1040.14
1041.71
1043.19
1044.56
1045.83
1047
1048.06
1049.03
1049.9
1050.68
1051.36
1051.95
1052.44
1052.81
1053.11
1053.23
1053.17
1053.02
1052.72
1052.36
1051.88
1051.37
1050.65
1049.84
1048.93
1047.9
1046.77
1045.52
1044.17
1042.71
1041.14
1039.5
1037.7
1035.89
1033.9
1031.92
1029.74
1027.6
1025.25
1022.95
1020.47
1017.99
1015.4
1012.76
1010.05
1007.29
1004.48
1001.63
998.74
995.832
992.915
990.013
987.167
984.439
981.942
979.831
978.525
978.877
984.46
11463.2
2252.05
1357.69
1141.5
923.144
727.923
567.7
455.677
378.685
324.585
285.728
257.848
237.733
222.565
210.659
201.249
194.008
188.663
185.009
182.974
182.977
184.087
187.487
193.62
203.797
219.087
239.319
262.637
285.979
306.215
319.161
334.554
392.484
474.457
543.875
596.256
652.509
720.813
797.093
872.871
941.054
999.208
1049.12
1075.64
1081.81
1047.95
1007.44
969.958
931.932
894.209
862.277
834.883
812.055
793.47
778.289
766.689
758.05
751.74
747.882
745.817
744.574
744.7
745.238
746.859
748.827
751.216
753.959
756.964
760.191
763.591
767.131
770.782
774.517
778.32
782.17
786.052
789.953
793.861
797.764
801.655
805.525
809.368
813.18
816.955
820.692
824.391
828.049
831.667
835.249
838.793
842.319
845.817
849.3
852.762
856.213
859.645
863.064
866.46
869.831
873.165
876.45
879.682
882.849
885.948
888.974
891.928
894.805
897.606
900.324
902.96
905.511
907.974
910.348
912.629
914.816
916.906
918.897
920.786
922.572
924.255
925.837
927.315
928.692
929.961
931.127
932.185
933.14
933.989
934.736
935.38
935.924
936.364
936.705
936.951
937.056
937.011
936.85
936.611
936.246
935.766
935.199
934.52
933.756
932.856
931.854
930.745
929.53
928.208
926.78
925.246
923.61
921.867
920.036
918.092
916.077
913.944
911.75
909.435
907.071
904.588
902.062
899.432
896.745
893.982
891.157
888.273
885.335
882.348
879.319
876.255
873.168
870.078
867.012
864.003
861.105
858.411
856.046
854.32
853.908
856.441
11463.2
2798.53
1671.45
1190.35
842.05
599.528
454.629
362.49
303.703
265.514
239.362
220.497
206.243
195.271
186.605
179.71
174.322
170.315
167.635
166.344
166.534
167.732
170.629
175.546
182.872
193.361
208.492
227.696
251.886
286.524
338.037
413.363
510.357
587.944
646.871
705.098
762.174
812.062
853.236
890.232
925.957
942.763
944.028
915.491
888.367
856.629
825.474
796.463
769.695
746.371
727.135
711.07
698.094
687.857
680.009
674.407
670.638
668.679
668.018
668.053
669.02
670.766
672.997
675.749
678.801
682.132
685.688
689.421
693.298
697.287
701.367
705.517
709.721
713.964
718.233
722.519
726.808
731.094
735.368
739.623
743.854
748.056
752.227
756.363
760.465
764.532
768.564
772.562
776.524
780.461
784.367
788.251
792.112
795.948
799.757
803.537
807.284
810.991
814.654
818.263
821.808
825.288
828.699
832.034
835.29
838.465
841.553
844.552
847.457
850.266
852.974
855.579
858.077
860.466
862.746
864.913
866.963
868.895
870.709
872.404
873.981
875.441
876.783
878.008
879.116
880.107
880.983
881.744
882.393
882.928
883.352
883.661
883.858
883.927
883.814
883.642
883.341
882.932
882.407
881.77
881.031
880.179
879.221
878.144
876.957
875.66
874.253
872.735
871.107
869.37
867.524
865.571
863.518
861.358
859.106
856.748
854.302
851.754
849.125
846.4
843.6
840.713
837.753
834.721
831.622
828.462
825.246
821.979
818.667
815.321
811.952
808.577
805.22
801.915
798.708
795.674
792.912
790.65
789.248
789.743
11463.2
3320.22
1743.74
1053.29
668.98
468.666
361.807
302.903
266.02
240.405
221.08
206.008
193.904
184.018
175.916
169.403
164.363
160.705
158.453
157.653
158.199
160.211
164.242
170.657
180.358
194.432
212.809
240.183
285.724
357.164
455.748
541.301
603.073
658.403
707.989
748.312
780.781
808.517
832.177
841.929
839.086
818.115
799.437
774.445
751.153
727.11
704.962
685.181
668.012
653.643
641.901
632.427
625.085
619.658
615.92
613.953
613.219
613.282
614.438
616.312
618.813
621.847
625.275
629.047
633.071
637.303
641.703
646.237
650.878
655.602
660.392
665.232
670.107
675.007
679.919
684.836
689.747
694.646
699.524
704.376
709.198
713.986
718.737
723.45
728.125
732.763
737.363
741.926
746.453
750.942
755.4
759.827
764.218
768.575
772.891
777.165
781.389
785.561
789.676
793.728
797.716
801.63
805.462
809.205
812.856
816.408
819.857
823.198
826.426
829.537
832.526
835.391
838.126
840.727
843.194
845.525
847.72
849.777
851.695
853.478
855.123
856.635
858.012
859.258
860.372
861.356
862.212
862.941
863.545
864.025
864.381
864.608
864.693
864.613
864.433
864.141
863.722
863.182
862.521
861.744
860.841
859.819
858.678
857.418
856.039
854.543
852.928
851.196
849.346
847.378
845.294
843.095
840.784
838.363
835.835
833.198
830.459
827.615
824.677
821.642
818.519
815.308
812.017
808.648
805.208
801.704
798.14
794.522
790.858
787.157
783.431
779.697
775.978
772.302
768.711
765.265
762.037
759.194
756.913
755.776
11463.2
3513.58
1590.65
841.943
526.329
384.237
312.079
269.779
242.611
223.544
209.097
197.311
187.269
178.611
171.216
165.076
160.368
157.294
155.927
156.298
158.369
162.149
168.421
178.623
194.601
219.386
257.155
314.926
398.227
482.515
546.15
597.345
642.112
681.143
713.131
739.901
757.448
763.697
759.163
744.117
729.579
710.723
693.12
674.264
656.523
639.471
624.325
611.23
600.208
591.207
584.064
578.619
574.745
572.465
571.526
571.452
572.448
574.279
576.875
580.081
583.793
587.93
592.407
597.165
602.146
607.31
612.62
618.048
623.57
629.165
634.813
640.502
646.216
651.945
657.677
663.404
669.117
674.807
680.467
686.092
691.676
697.217
702.712
708.16
713.561
718.916
724.224
729.49
734.709
739.884
745.013
750.096
755.134
760.12
765.052
769.924
774.731
779.469
784.132
788.719
793.224
797.634
801.94
806.136
810.216
814.175
818.008
821.709
825.274
828.697
831.976
835.106
838.085
840.91
843.582
846.096
848.451
850.648
852.686
854.568
856.295
857.869
859.291
860.565
861.692
862.674
863.514
864.212
864.772
865.195
865.482
865.61
865.573
865.408
865.115
864.694
864.138
863.451
862.634
861.697
860.625
859.425
858.098
856.643
855.062
853.355
851.521
849.561
847.474
845.26
842.92
840.457
837.872
835.169
832.348
829.412
826.362
823.202
819.938
816.572
813.11
809.555
805.913
802.188
798.388
794.519
790.587
786.597
782.56
778.483
774.381
770.268
766.166
762.1
758.108
754.236
750.542
747.134
744.073
741.551
11463.2
3429.84
1322.13
679.16
452.294
350.915
295.578
260.48
237.534
220.642
207.161
195.933
186.317
178.065
171.173
165.801
162.202
160.405
160.505
162.771
167.705
175.91
189.303
210.388
242.499
292.405
358.863
429.747
488.927
538.117
579.347
614.938
645.841
673.391
691.718
698.235
696.058
685.493
673.395
658.875
644.998
630.596
616.834
603.067
590.158
578.313
568.03
559.356
552.271
546.717
542.599
539.859
538.536
538.203
538.856
540.439
542.877
546.047
549.858
554.211
559.021
564.217
569.732
575.512
581.509
587.685
594.006
600.447
606.982
613.587
620.242
626.93
633.637
640.348
647.051
653.739
660.404
667.033
673.62
680.158
686.644
693.073
699.443
705.755
712.007
718.197
724.321
730.375
736.375
742.315
748.203
754.032
759.805
765.512
771.152
776.714
782.196
787.59
792.888
798.082
803.159
808.117
812.945
817.64
822.192
826.598
830.851
834.947
838.878
842.641
846.232
849.648
852.886
855.945
858.823
861.518
864.03
866.358
868.506
870.475
872.269
873.888
875.339
876.623
877.744
878.704
879.506
880.152
880.646
880.989
881.174
881.189
881.038
880.748
880.315
879.74
879.021
878.158
877.155
876.013
874.732
873.314
871.758
870.065
868.236
866.269
864.166
861.926
859.548
857.033
854.382
851.595
848.675
845.626
842.449
839.145
835.718
832.172
828.512
824.744
820.871
816.899
812.833
808.678
804.441
800.131
795.753
791.314
786.824
782.294
777.736
773.166
768.603
764.072
759.603
755.236
751.013
747.014
743.285
739.685
11463.2
3052.87
1070.81
572.852
400.601
322.426
280.167
254.424
235.749
221.513
210.044
200.232
191.674
184.38
178.599
174.705
173.209
174.262
178.561
186.417
199.231
218.545
247.852
287.811
337.294
390.198
440.789
485.189
522.724
555.297
583.757
609.527
629.986
639.428
640.734
634.833
626.107
614.943
603.766
592.594
581.97
571.447
561.224
551.291
542.101
533.92
526.976
521.313
516.922
513.762
511.934
511.253
511.448
512.659
514.774
517.724
521.434
525.815
530.789
536.28
542.218
548.54
555.184
562.097
569.234
576.556
584.028
591.623
599.332
607.103
614.915
622.753
630.598
638.43
646.231
653.975
661.635
669.249
676.816
684.329
691.782
699.169
706.491
713.747
720.936
728.059
735.12
742.126
749.057
755.916
762.693
769.393
776.01
782.538
788.97
795.298
801.514
807.611
813.58
819.411
825.097
830.632
836.009
841.219
846.256
851.114
855.787
860.269
864.555
868.64
872.521
876.195
879.66
882.916
885.962
888.797
891.42
893.832
896.038
898.042
899.848
901.459
902.881
904.119
905.177
906.058
906.766
907.304
907.675
907.879
907.912
907.764
907.454
906.986
906.362
905.584
904.65
903.563
902.324
900.935
899.398
897.712
895.88
893.9
891.774
889.5
887.078
884.509
881.791
878.925
875.911
872.75
869.445
865.999
862.413
858.689
854.833
850.849
846.743
842.521
838.187
833.747
829.205
824.569
819.844
815.041
810.164
805.224
800.23
795.194
790.13
785.052
779.978
774.931
769.938
765.031
760.243
755.647
751.237
746.627
11463.2
2591.96
918.058
529.458
385.909
317.435
279.883
257.091
241.605
229.839
220.152
211.889
204.987
199.707
196.923
196.664
200.075
207.576
219.093
235.324
258.419
289.131
325.477
364.943
404.251
440.796
473.827
503.07
528.621
551.963
572.303
584.684
588.741
587.687
582.97
575.537
567.187
558.613
550.42
542.487
534.782
527.151
519.704
512.618
506.197
500.66
496.146
492.704
490.376
489.27
489.066
489.872
491.598
494.242
497.742
502.038
507.056
512.724
518.974
525.738
532.96
540.604
548.581
556.833
565.314
573.98
582.786
591.678
600.573
609.517
618.509
627.526
636.547
645.551
654.516
663.434
672.307
681.113
689.858
698.524
707.106
715.601
724.013
732.342
740.587
748.749
756.824
764.803
772.688
780.472
788.158
795.744
803.221
810.586
817.826
824.933
831.897
838.708
845.358
851.835
858.135
864.245
870.159
875.867
881.364
886.64
891.692
896.514
901.102
905.451
909.557
913.418
917.036
920.41
923.541
926.43
929.076
931.482
933.652
935.595
937.315
938.82
940.115
941.21
942.107
942.813
943.332
943.668
943.821
943.799
943.592
943.206
942.645
941.917
941.022
939.964
938.74
937.355
935.808
934.103
932.241
930.223
928.048
925.717
923.229
920.584
917.782
914.822
911.704
908.428
904.992
901.399
897.651
893.75
889.698
885.5
881.161
876.687
872.084
867.357
862.512
857.554
852.488
847.32
842.059
836.713
831.289
825.799
820.253
814.665
809.048
803.416
797.787
792.18
786.619
781.133
775.746
770.522
765.446
759.914
11463.2
2146.55
789.431
481.201
367.717
313.494
283.926
265.679
253.15
243.766
236.368
230.663
227.081
225.989
227.804
233.688
243.525
256.795
273.473
295.129
320.767
348.945
377.965
406.518
433.479
458.238
480.533
501.165
520.113
534.117
540.508
542.28
541.646
538.177
533.061
527.186
521.237
515.43
509.819
504.291
498.798
493.351
488.095
483.237
479.006
475.575
473.047
471.626
471.172
471.669
473.125
475.525
478.837
483.037
488.105
493.998
500.607
507.862
515.697
524.036
532.784
541.79
551.112
560.742
570.636
580.745
591.019
601.421
611.945
622.518
633.094
643.639
654.13
664.546
674.85
685.034
695.095
705.029
714.828
724.515
734.102
743.597
753.006
762.334
771.578
780.733
789.791
798.744
807.584
816.311
824.913
833.391
841.738
849.942
857.992
865.874
873.577
881.088
888.396
895.491
902.364
909.004
915.401
921.546
927.43
933.047
938.39
943.457
948.244
952.748
956.965
960.895
964.539
967.902
970.985
973.793
976.326
978.585
980.579
982.318
983.81
985.061
986.084
986.893
987.487
987.875
988.067
988.064
987.869
987.487
986.917
986.164
985.232
984.127
982.85
981.403
979.784
977.998
976.047
973.931
971.653
969.212
966.608
963.841
960.91
957.815
954.555
951.129
947.537
943.779
939.853
935.762
931.506
927.086
922.508
917.777
912.899
907.881
902.728
897.445
892.039
886.514
880.875
875.129
869.284
863.348
857.331
851.245
845.105
838.922
832.711
826.484
820.259
814.052
807.886
801.786
795.771
789.898
784.165
777.771
11463.2
1966.66
768.619
478.536
370.301
320.742
294.472
278.917
268.789
261.817
257.141
254.964
254.718
257.429
263.658
273.213
285.677
300.622
318.058
337.822
358.859
380.242
401.23
421.153
439.568
457.025
473.847
487.368
495.745
499.982
501.649
501.644
499.766
496.875
493.412
489.746
486.073
482.412
478.745
475.049
471.365
467.794
464.502
461.67
459.479
458.186
457.77
458.3
459.89
462.467
465.979
470.402
475.699
481.806
488.59
496.007
504.171
513.056
522.602
532.742
543.415
554.603
566.191
578.106
590.276
602.628
615.08
627.568
640.053
652.5
664.818
676.937
688.805
700.398
711.731
722.813
733.675
744.342
754.846
765.226
775.517
785.739
795.91
806.038
816.111
826.113
836.028
845.839
855.54
865.108
874.546
883.836
892.973
901.939
910.721
919.3
927.66
935.785
943.659
951.276
958.617
965.677
972.44
978.898
985.036
990.852
996.337
1001.49
1006.31
1010.8
1014.96
1018.77
1022.26
1025.42
1028.26
1030.8
1033.03
1034.95
1036.57
1037.91
1038.98
1039.78
1040.34
1040.67
1040.77
1040.64
1040.33
1039.8
1039.08
1038.16
1037.06
1035.77
1034.31
1032.67
1030.86
1028.88
1026.73
1024.41
1021.92
1019.28
1016.46
1013.48
1010.34
1007.03
1003.55
999.91
996.096
992.112
987.958
983.633
979.137
974.471
969.634
964.625
959.454
954.129
948.654
943.036
937.279
931.388
925.369
919.227
912.967
906.597
900.121
893.55
886.896
880.176
873.402
866.587
859.744
852.887
846.03
839.189
832.385
825.642
818.975
812.436
806.054
798.855
11463.2
1903.71
749.545
475.764
376.604
331.256
307.882
294.619
286.462
281.587
279.415
279.109
281.414
286.69
294.565
304.666
316.604
330.092
344.904
360.438
376.089
391.363
405.983
420.204
434.27
446.194
454.516
460.327
464.369
466.476
467.267
467.301
466.424
465.183
463.667
461.992
460.221
458.375
456.492
454.637
452.937
451.592
450.815
450.591
451.067
452.38
454.539
457.489
461.061
465.453
470.827
477.208
484.582
492.921
502.236
512.52
523.708
535.735
548.518
561.967
576
590.537
605.446
620.609
635.95
651.351
666.607
681.573
696.15
710.259
723.98
737.22
749.922
762.088
773.742
784.912
795.707
806.211
816.521
826.731
836.944
847.188
857.504
867.902
878.339
888.77
899.162
909.487
919.721
929.851
939.845
949.695
959.379
968.877
978.168
987.227
996.032
1004.56
1012.8
1020.72
1028.33
1035.59
1042.51
1049.06
1055.23
1061.02
1066.41
1071.41
1076.02
1080.25
1084.09
1087.54
1090.61
1093.31
1095.65
1097.65
1099.32
1100.64
1101.63
1102.36
1102.8
1102.93
1102.78
1102.42
1101.81
1100.95
1099.88
1098.59
1097.1
1095.42
1093.56
1091.51
1089.29
1086.9
1084.35
1081.63
1078.77
1075.75
1072.58
1069.24
1065.74
1062.08
1058.26
1054.28
1050.13
1045.82
1041.34
1036.69
1031.86
1026.87
1021.71
1016.39
1010.89
1005.21
999.381
993.397
987.266
980.99
974.573
968.019
961.334
954.524
947.595
940.554
933.404
926.156
918.829
911.439
903.998
896.518
889.012
881.493
873.976
866.472
859.003
851.595
844.268
837.059
830.044
822.09
11463.2
1868.74
743.576
480.999
386.953
344.56
323.015
310.86
303.578
299.929
298.686
299.243
302.779
308.532
316.07
324.986
334.954
345.723
356.987
368.405
379.664
390.768
401.919
411.407
418.993
425.142
430.324
434.41
437.624
440.07
441.99
443.589
444.992
446.173
447.132
447.924
448.607
449.238
449.884
450.612
451.469
452.406
453.564
455.377
458.078
461.923
466.818
472.744
479.803
488.015
497.39
507.957
519.692
532.561
546.555
561.653
577.858
595.046
613.002
631.562
650.572
669.868
689.269
708.595
727.659
746.189
764.058
781.17
797.428
812.769
827.173
840.539
852.825
864.15
874.612
884.138
893.053
901.54
909.799
918.122
926.989
936.107
945.506
955.242
965.17
975.198
985.261
995.329
1005.36
1015.34
1025.22
1034.99
1044.62
1054.09
1063.36
1072.4
1081.18
1089.67
1097.86
1105.72
1113.23
1120.37
1127.11
1133.45
1139.37
1144.84
1149.86
1154.43
1158.55
1162.24
1165.49
1168.31
1170.68
1172.64
1174.17
1175.36
1176.19
1176.63
1176.66
1176.49
1175.99
1175.16
1174.02
1172.62
1170.96
1169.07
1166.94
1164.61
1162.08
1159.36
1156.46
1153.4
1150.17
1146.78
1143.25
1139.56
1135.75
1131.8
1127.7
1123.45
1119.06
1114.52
1109.82
1104.97
1099.97
1094.81
1089.49
1084.02
1078.38
1072.58
1066.62
1060.5
1054.23
1047.81
1041.25
1034.55
1027.69
1020.7
1013.56
1006.29
998.887
991.357
983.711
975.955
968.09
960.131
952.101
944.013
935.878
927.706
919.511
911.306
903.106
894.927
886.784
878.708
870.72
862.845
855.212
846.555
11463.7
1843.62
742.627
489.543
398.482
357.424
336.907
325.223
318.094
314.648
313.522
314.158
317.469
322.469
328.711
335.839
343.639
351.974
360.673
369.616
378.304
386.383
393.708
400.793
407.325
413.419
419.173
424.575
429.649
434.372
438.757
442.746
446.171
449.188
452.094
454.976
457.917
460.993
464.299
467.925
471.988
476.651
482.124
488.513
496.088
505.109
515.28
526.621
539.23
553.13
568.378
585.131
603.289
622.654
643.112
664.53
686.694
709.442
732.649
756.123
779.642
802.97
825.874
848.13
869.517
889.901
909.19
927.284
944.099
959.551
973.518
986.005
996.855
1006.49
1015.26
1023.34
1030.85
1037.77
1044.24
1050.43
1056.69
1063.04
1069.86
1077.52
1085.58
1093.86
1102.28
1110.8
1119.4
1128.05
1136.72
1145.37
1153.98
1162.5
1170.89
1179.11
1187.1
1194.85
1202.32
1209.48
1216.29
1222.72
1228.73
1234.32
1239.46
1244.12
1248.28
1251.92
1255.07
1257.75
1259.96
1261.68
1262.92
1263.7
1263.97
1263.93
1263.53
1262.67
1261.43
1259.86
1257.94
1255.7
1253.16
1250.35
1247.3
1244.02
1240.54
1236.86
1233
1228.99
1224.82
1220.5
1216.04
1211.45
1206.73
1201.88
1196.91
1191.81
1186.59
1181.24
1175.76
1170.16
1164.42
1158.55
1152.54
1146.39
1140.11
1133.68
1127.11
1120.39
1113.52
1106.51
1099.36
1092.09
1084.69
1077.15
1069.47
1061.65
1053.69
1045.59
1037.37
1029.03
1020.58
1012.03
1003.39
994.684
985.918
977.1
968.24
959.347
950.436
941.522
932.621
923.749
914.922
906.176
897.528
888.991
880.746
871.434
11462.8
1834.08
746.028
498.397
407.914
367.533
347.399
335.646
328.436
324.958
323.761
324.131
327.039
331.455
337.075
343.693
351.005
358.766
366.84
375.032
383.378
391.67
399.719
407.714
415.586
423.397
431.197
438.997
446.76
454.404
461.985
469.532
477.185
484.998
493.026
501.353
510.071
519.257
529.001
539.382
550.498
562.453
575.333
589.116
603.794
619.161
635.476
652.866
671.435
691.173
712.099
734.284
757.475
781.645
806.698
832.485
858.806
885.424
912.119
938.622
964.675
990.013
1014.38
1037.53
1059.26
1079.45
1097.96
1114.72
1129.69
1142.92
1154.55
1164.76
1173.65
1181.14
1187.75
1193.84
1199.52
1204.46
1208.88
1212.72
1215.94
1219.38
1223.27
1227.59
1232.23
1237.16
1242.4
1247.93
1253.74
1259.82
1266.11
1272.55
1279.1
1285.68
1292.23
1298.7
1305.01
1311.14
1317.01
1322.62
1327.91
1332.8
1337.21
1341.24
1344.82
1347.95
1350.54
1352.54
1354.02
1355.06
1355.65
1355.74
1355.31
1354.43
1353.13
1351.45
1349.38
1346.92
1344.1
1340.94
1337.45
1333.67
1329.63
1325.34
1320.84
1316.15
1311.28
1306.24
1301.07
1295.77
1290.34
1284.8
1279.16
1273.4
1267.55
1261.59
1255.54
1249.38
1243.13
1236.77
1230.31
1223.74
1217.06
1210.27
1203.36
1196.33
1189.18
1181.91
1174.51
1166.97
1159.31
1151.5
1143.56
1135.49
1127.28
1118.94
1110.46
1101.84
1093.09
1084.2
1075.2
1066.07
1056.85
1047.52
1038.12
1028.67
1019.16
1009.6
1000
990.377
980.742
971.115
961.512
951.957
942.481
933.102
923.832
914.674
905.847
895.964
11461.8
1834.79
753.347
503.549
413.573
375.212
355.711
344.267
337.704
334.81
334.008
335.38
339.279
344.803
351.569
359.546
368.69
378.062
388.034
398.838
410.551
422.595
435.073
448.083
461.613
475.641
490.116
504.961
520.128
535.669
551.633
568.053
585.032
602.564
620.642
639.304
658.598
678.539
699.141
720.434
742.401
764.893
787.771
810.871
834.011
857.024
879.998
903.293
927.365
951.789
976.421
1000.93
1025.59
1050.51
1075.67
1101.05
1126.45
1151.73
1176.71
1201.18
1224.9
1247.64
1269.11
1288.96
1306.91
1323.03
1337.12
1349.07
1358.78
1366.35
1372.15
1376.56
1380.31
1383.14
1384.98
1385.37
1386.03
1385.26
1384.34
1382.87
1381.59
1382
1382.65
1382.6
1382.66
1383.13
1384.1
1385.63
1387.68
1390.33
1393.39
1396.78
1400.45
1404.29
1408.23
1412.2
1416.11
1419.91
1423.54
1426.97
1430.17
1432.97
1435.15
1437.05
1438.57
1439.77
1440.43
1440.41
1439.81
1438.92
1437.6
1435.83
1433.62
1430.99
1427.99
1424.63
1420.94
1416.91