/*--------------------------------*- C++ -*----------------------------------*\
  =========                 |
  \\      /  F ield         | OpenFOAM: The Open Source CFD Toolbox
   \\    /   O peration     | Website:  https://openfoam.org
    \\  /    A nd           | Version:  13
     \\/     M anipulation  |
\*---------------------------------------------------------------------------*/
FoamFile
{
    format      ascii;
    class       volScalarField;
    location    "1100";
    object      p;
}
// * * * * * * * * * * * * * * * * * * * * * * * * * * * * * * * * * * * * * //

dimensions      [0 2 -2 0 0 0 0];

internalField   nonuniform List<scalar> 
12225
(
-4.19665
-5.06457
-5.46968
-5.61245
-5.7589
-5.93052
-6.08504
-6.21512
-6.32822
-6.42603
-6.50937
-6.5762
-6.62632
-6.66787
-6.71035
-6.76218
-6.82601
-6.90823
-4.47445
-5.10171
-5.44549
-5.58903
-5.73306
-5.89883
-6.05366
-6.1812
-6.28973
-6.38499
-6.46785
-6.53446
-6.58971
-6.63867
-6.68319
-6.73392
-6.79254
-6.8381
-4.6565
-5.09244
-5.42527
-5.59714
-5.74543
-5.90628
-6.05681
-6.18125
-6.28614
-6.37987
-6.4597
-6.52246
-6.57662
-6.62487
-6.67012
-6.71931
-6.77021
-6.81076
-4.79284
-5.10844
-5.42871
-5.61189
-5.7533
-5.90238
-6.04521
-6.16594
-6.26881
-6.35985
-6.43721
-6.50032
-6.55626
-6.60769
-6.65607
-6.70427
-6.75158
-6.79111
-4.92398
-5.1589
-5.44355
-5.62381
-5.7595
-5.90006
-6.03735
-6.15579
-6.25718
-6.34575
-6.42187
-6.48649
-6.54405
-6.59679
-6.6454
-6.69137
-6.73516
-6.77301
-5.04013
-5.2244
-5.45934
-5.63369
-5.76729
-5.90082
-6.03156
-6.1462
-6.24443
-6.32996
-6.40465
-6.46964
-6.52744
-6.57995
-6.62791
-6.67243
-6.71428
-6.7514
-5.14232
-5.279
-5.48355
-5.65028
-5.78051
-5.90628
-6.02931
-6.13905
-6.23373
-6.31671
-6.39021
-6.45505
-6.51271
-6.56479
-6.61228
-6.65606
-6.69677
-6.73328
-5.23549
-5.3379
-5.5145
-5.67009
-5.79494
-5.91316
-6.02863
-6.13321
-6.22451
-6.30514
-6.37708
-6.44098
-6.49787
-6.5492
-6.59599
-6.63895
-6.67854
-6.71399
-5.32071
-5.39797
-5.54738
-5.68986
-5.80863
-5.92003
-6.02842
-6.12782
-6.21574
-6.29392
-6.36399
-6.42659
-6.48262
-6.53329
-6.5795
-6.62179
-6.66045
-6.69507
-5.39629
-5.45628
-5.5808
-5.70955
-5.82158
-5.92639
-6.02803
-6.12231
-6.2068
-6.28247
-6.35062
-6.41193
-6.46713
-6.51717
-6.56276
-6.60431
-6.64212
-6.6759
-5.46331
-5.51105
-5.61456
-5.72956
-5.83411
-5.93235
-6.02753
-6.11676
-6.19777
-6.27091
-6.33718
-6.39715
-6.45142
-6.50069
-6.54553
-6.58632
-6.62335
-6.65649
-5.5186
-5.55803
-5.64554
-5.7483
-5.84553
-5.93774
-6.02724
-6.11191
-6.18966
-6.26043
-6.32487
-6.3835
-6.43677
-6.48523
-6.52935
-6.56947
-6.6059
-6.6385
-5.56833
-5.60146
-5.67563
-5.76697
-5.85687
-5.94322
-6.02729
-6.10751
-6.18198
-6.25031
-6.31288
-6.37006
-6.42225
-6.46981
-6.5132
-6.55266
-6.5885
-6.62066
-5.61909
-5.64659
-5.70839
-5.78806
-5.8698
-5.94966
-6.02786
-6.10314
-6.17386
-6.23934
-6.29966
-6.3551
-6.40591
-6.4524
-6.49487
-6.53358
-6.56878
-6.60049
-5.66882
-5.69139
-5.74236
-5.81077
-5.88386
-5.95681
-6.02883
-6.09886
-6.1654
-6.22764
-6.28539
-6.3388
-6.38798
-6.43318
-6.47459
-6.51246
-6.54699
-6.57826
-5.71454
-5.73303
-5.77507
-5.83336
-5.89795
-5.96391
-6.02979
-6.09446
-6.15663
-6.21536
-6.27035
-6.32148
-6.36888
-6.41261
-6.45289
-6.48982
-6.52368
-6.5545
-5.75216
-5.76753
-5.80277
-5.8528
-5.90986
-5.9694
-6.0296
-6.08928
-6.14723
-6.20252
-6.25468
-6.30354
-6.34907
-6.39133
-6.4304
-6.46643
-6.49959
-6.53
-5.77569
-5.78904
-5.81986
-5.86431
-5.91591
-5.97056
-6.02635
-6.08206
-6.13655
-6.18893
-6.23865
-6.2855
-6.32937
-6.37028
-6.40826
-6.44345
-6.47597
-6.506
-5.77568
-5.78841
-5.81795
-5.86063
-5.91023
-5.96281
-6.01657
-6.07035
-6.12304
-6.1738
-6.22208
-6.26767
-6.31047
-6.35049
-6.38775
-6.42239
-6.4545
-6.48429
-5.7441
-5.75852
-5.79153
-5.8381
-5.89079
-5.94555
-6.00094
-6.05601
-6.10959
-6.16087
-6.2094
-6.25509
-6.29784
-6.33776
-6.37486
-6.40935
-6.44131
-6.47102
-5.69827
-5.7158
-5.75536
-5.80916
-5.86752
-5.92648
-5.98536
-6.04332
-6.09913
-6.15197
-6.2016
-6.248
-6.29125
-6.3314
-6.36863
-6.40311
-6.43508
-6.46473
-5.63922
-5.66205
-5.71221
-5.7765
-5.84228
-5.90668
-5.97032
-6.03231
-6.09111
-6.14608
-6.19722
-6.24469
-6.2886
-6.32912
-6.36651
-6.40103
-6.43295
-6.46257
-5.56897
-5.60039
-5.66601
-5.74341
-5.8172
-5.88767
-5.95691
-6.02349
-6.08558
-6.14286
-6.19573
-6.24441
-6.28907
-6.32997
-6.36744
-6.40191
-6.43368
-6.46314
-5.48827
-5.53358
-5.62068
-5.7123
-5.79345
-5.87041
-5.94606
-6.01744
-6.08264
-6.14209
-6.19658
-6.24638
-6.2917
-6.33289
-6.37043
-6.40477
-6.43633
-6.46569
-5.39682
-5.46427
-5.58006
-5.68506
-5.77143
-5.85488
-5.93747
-6.01373
-6.08196
-6.14349
-6.19944
-6.25012
-6.29576
-6.33688
-6.37419
-6.40821
-6.43924
-6.46786
-5.2943
-5.39476
-5.5458
-5.66219
-5.75191
-5.84127
-5.93009
-6.01061
-6.08169
-6.1455
-6.20317
-6.25497
-6.30115
-6.34232
-6.37932
-6.41307
-6.44412
-6.47283
-5.18111
-5.33026
-5.5149
-5.63837
-5.73321
-5.83031
-5.92484
-6.00842
-6.08138
-6.14666
-6.2053
-6.25758
-6.30386
-6.34503
-6.38148
-6.41415
-6.44481
-6.47402
-5.0496
-5.28713
-5.49407
-5.61121
-5.71151
-5.82024
-5.92303
-6.01153
-6.08807
-6.15609
-6.21651
-6.26955
-6.31574
-6.35665
-6.39283
-6.42447
-6.45392
-6.48317
-4.85424
-5.25948
-5.49749
-5.59672
-5.69296
-5.8067
-5.91325
-6.00393
-6.08275
-6.15319
-6.21583
-6.27039
-6.31734
-6.35771
-6.39297
-6.42393
-6.45149
-6.47683
-4.60024
-5.19127
-5.49436
-5.60389
-5.70765
-5.82911
-5.94011
-6.03252
-6.11206
-6.183
-6.24597
-6.3005
-6.34702
-6.38567
-6.41774
-6.44541
-6.46868
-6.48658
-7.39007
-7.39018
-7.39026
-7.39034
-7.39022
-7.38929
-7.38704
-7.38378
-7.38048
-7.37805
-7.37749
-7.37914
-7.38262
-7.38723
-7.39228
-7.39709
-7.40113
-7.404
-7.40562
-7.40629
-7.40635
-7.406
-7.40545
-7.40494
-7.40465
-7.40462
-7.4047
-7.40469
-7.40445
-7.40403
-7.4035
-7.40288
-7.4021
-7.40111
-7.39994
-7.39886
-7.39853
-7.39966
-7.40243
-7.40614
-7.40961
-7.41186
-7.41272
-7.4127
-7.41258
-7.4131
-7.41491
-7.41758
-7.42018
-7.42234
-7.42596
-7.43468
-7.45264
-7.48007
-7.5156
-7.55858
-7.60934
-7.66729
-7.73093
-7.79836
-7.86767
-7.937
-8.00471
-8.06912
-8.12974
-8.18599
-8.23743
-8.28383
-8.32533
-8.36194
-8.39392
-8.42139
-8.44462
-8.46379
-8.47911
-8.49076
-8.49891
-8.50369
-8.5052
-8.50358
-8.49884
-8.49105
-8.48013
-8.4661
-8.44875
-8.42801
-8.40358
-8.37533
-8.34294
-8.30623
-8.26508
-8.21921
-8.16834
-8.11221
-8.05058
-7.98327
-7.91008
-7.83086
-7.74538
-7.65341
-7.55457
-7.44863
-7.33551
-7.21526
-7.08793
-6.95355
-6.81222
-6.66409
-6.50939
-6.34828
-6.18105
-6.00791
-5.8292
-5.64519
-5.45626
-5.26272
-5.06496
-4.86322
-4.6578
-4.4489
-4.2368
-4.0218
-3.80424
-3.5844
-3.36249
-3.13867
-2.9131
-2.6859
-2.45717
-2.22704
-1.99553
-1.76277
-1.52871
-1.29348
-1.05701
-0.819418
-0.580639
-0.340776
-0.0996937
0.142708
0.386542
0.631678
0.878048
1.12563
1.37438
1.62425
1.87517
2.12704
2.37978
2.63325
2.88734
3.14187
3.39669
3.65159
3.90638
4.1608
4.41466
4.66768
4.91965
5.17029
5.41938
5.66666
5.91189
6.15479
6.39513
6.63262
6.867
7.09799
7.32534
7.54877
7.76802
7.98286
8.19301
8.39827
8.59841
8.79322
8.98276
9.16692
9.34878
9.51902
-7.3912
-7.39139
-7.3918
-7.39229
-7.39241
-7.39173
-7.38993
-7.38739
-7.38528
-7.38457
-7.38566
-7.38846
-7.39257
-7.39738
-7.40231
-7.40687
-7.41069
-7.41357
-7.41532
-7.41578
-7.41499
-7.41327
-7.41105
-7.40877
-7.40683
-7.40546
-7.40462
-7.40409
-7.40361
-7.4031
-7.40264
-7.40226
-7.40183
-7.40125
-7.40058
-7.40029
-7.40113
-7.40361
-7.4074
-7.4114
-7.4144
-7.41556
-7.41495
-7.41324
-7.41092
-7.40849
-7.40728
-7.40942
-7.41517
-7.42119
-7.42769
-7.43865
-7.45539
-7.47887
-7.51174
-7.55592
-7.61056
-7.67303
-7.74085
-7.81152
-7.88286
-7.95267
-8.01949
-8.08288
-8.14199
-8.19589
-8.24477
-8.28872
-8.3279
-8.36247
-8.39263
-8.41858
-8.4405
-8.45858
-8.473
-8.48393
-8.4915
-8.49583
-8.49704
-8.49521
-8.49037
-8.48258
-8.47178
-8.45797
-8.44098
-8.4207
-8.39688
-8.36933
-8.33776
-8.302
-8.26187
-8.21709
-8.16738
-8.11244
-8.05201
-7.98584
-7.91371
-7.83535
-7.75054
-7.65904
-7.56074
-7.45555
-7.34337
-7.22412
-7.09776
-6.96438
-6.82406
-6.67693
-6.52314
-6.36293
-6.19651
-6.02416
-5.84616
-5.66283
-5.47449
-5.28152
-5.08424
-4.88298
-4.67797
-4.46947
-4.25774
-4.0431
-3.82588
-3.60634
-3.38473
-3.16119
-2.9359
-2.70897
-2.48054
-2.25069
-2.01952
-1.78704
-1.55331
-1.31836
-1.0822
-0.844824
-0.606152
-0.366122
-0.124748
0.117783
0.361394
0.606177
0.852176
1.09938
1.34777
1.59728
1.84785
2.09939
2.3518
2.60498
2.85879
3.11307
3.36766
3.62236
3.87698
4.13128
4.38504
4.63801
4.88995
5.1406
5.38974
5.63709
5.88241
6.12545
6.36595
6.60364
6.83826
7.06953
7.29719
7.52097
7.74062
7.9559
8.16657
8.37245
8.57339
8.76917
8.95987
9.14477
9.32917
9.49912
-7.39242
-7.39244
-7.39253
-7.39268
-7.39281
-7.39276
-7.3927
-7.39312
-7.39456
-7.39721
-7.40096
-7.4055
-7.41046
-7.41542
-7.42003
-7.42398
-7.42707
-7.42917
-7.43023
-7.43016
-7.42899
-7.42682
-7.42385
-7.42029
-7.41638
-7.41237
-7.40852
-7.40506
-7.40216
-7.39996
-7.39841
-7.39729
-7.39629
-7.39541
-7.39519
-7.39651
-7.39988
-7.40495
-7.41039
-7.41446
-7.41591
-7.41443
-7.41108
-7.40771
-7.40574
-7.40509
-7.40575
-7.41001
-7.41917
-7.43251
-7.45056
-7.47454
-7.50474
-7.54137
-7.58476
-7.6348
-7.69038
-7.74984
-7.81161
-7.87413
-7.9362
-7.99669
-8.05476
-8.10993
-8.16176
-8.20973
-8.25368
-8.29353
-8.32931
-8.36107
-8.38889
-8.4129
-8.4332
-8.44992
-8.46321
-8.47319
-8.47998
-8.48368
-8.48439
-8.48218
-8.4771
-8.46917
-8.45836
-8.44466
-8.42792
-8.40803
-8.38476
-8.3579
-8.32718
-8.29238
-8.25332
-8.20972
-8.16126
-8.10764
-8.0486
-7.98381
-7.91305
-7.83602
-7.75253
-7.66236
-7.56541
-7.46158
-7.35078
-7.23289
-7.10787
-6.97578
-6.83668
-6.69072
-6.53805
-6.3789
-6.21348
-6.04208
-5.86495
-5.68246
-5.49489
-5.30264
-5.10602
-4.90539
-4.70096
-4.49303
-4.28185
-4.06776
-3.85107
-3.63205
-3.41094
-3.18791
-2.96312
-2.7367
-2.50878
-2.27944
-2.0488
-1.81684
-1.58367
-1.34927
-1.11369
-0.876905
-0.638887
-0.399555
-0.158905
0.0829459
0.325934
0.57009
0.815459
1.06203
1.30979
1.55869
1.80867
2.05964
2.31151
2.56417
2.81749
3.07131
3.32547
3.57979
3.83406
4.08806
4.34155
4.59429
4.84604
5.09655
5.34556
5.59283
5.83809
6.0811
6.32159
6.55931
6.79397
7.02532
7.25309
7.477
7.69682
7.91232
8.12322
8.32932
8.5305
8.72668
8.91824
9.10391
9.29131
9.45721
-7.39334
-7.3931
-7.39278
-7.39272
-7.39357
-7.39573
-7.39916
-7.40355
-7.40858
-7.41397
-7.41947
-7.42483
-7.42986
-7.43437
-7.4382
-7.44119
-7.44327
-7.44435
-7.44441
-7.44342
-7.44138
-7.43837
-7.43448
-7.42979
-7.42441
-7.41847
-7.41213
-7.40567
-7.39942
-7.39372
-7.38888
-7.38506
-7.38242
-7.3814
-7.38285
-7.38735
-7.3939
-7.4007
-7.40595
-7.4084
-7.40807
-7.40614
-7.40439
-7.4041
-7.40597
-7.41073
-7.4192
-7.43223
-7.4503
-7.47355
-7.50179
-7.53472
-7.57214
-7.61376
-7.65916
-7.70788
-7.75933
-7.81283
-7.86758
-7.92271
-7.97743
-8.03096
-8.08267
-8.13205
-8.17865
-8.22213
-8.26225
-8.29885
-8.33187
-8.36127
-8.38708
-8.40935
-8.42817
-8.44362
-8.45581
-8.46486
-8.47087
-8.47394
-8.47416
-8.4716
-8.4663
-8.45827
-8.44752
-8.434
-8.4176
-8.39819
-8.37558
-8.34952
-8.31974
-8.28604
-8.24816
-8.20585
-8.15874
-8.10656
-8.04896
-7.98567
-7.91638
-7.84082
-7.75876
-7.67001
-7.57442
-7.47189
-7.36232
-7.24562
-7.12177
-6.99077
-6.85273
-6.70774
-6.556
-6.39769
-6.23306
-6.06238
-5.88594
-5.70406
-5.51708
-5.32536
-5.12924
-4.92905
-4.72506
-4.51754
-4.30678
-4.09313
-3.87688
-3.65832
-3.43766
-3.21509
-2.99078
-2.76485
-2.53744
-2.30864
-2.07854
-1.84716
-1.61457
-1.38077
-1.1458
-0.909614
-0.672225
-0.433585
-0.193682
0.0474315
0.28972
0.533204
0.7779
1.02381
1.27092
1.51918
1.76854
2.01892
2.27022
2.52234
2.77514
3.02849
3.28221
3.53613
3.79004
4.04371
4.29692
4.54942
4.80096
5.05131
5.30018
5.54734
5.79253
6.03549
6.27595
6.51366
6.74834
6.97973
7.20755
7.43155
7.65148
7.8671
8.0782
8.28457
8.48612
8.6827
8.87487
9.06077
9.24916
9.40897
-7.39519
-7.39467
-7.39423
-7.39521
-7.39868
-7.40422
-7.41086
-7.41787
-7.42478
-7.43128
-7.43723
-7.44254
-7.44719
-7.45107
-7.45414
-7.4563
-7.45749
-7.45766
-7.45679
-7.45485
-7.45185
-7.44783
-7.44283
-7.4369
-7.43012
-7.42257
-7.41433
-7.40559
-7.39661
-7.38784
-7.3799
-7.37356
-7.36976
-7.36953
-7.3732
-7.37948
-7.38614
-7.39178
-7.39573
-7.39796
-7.39924
-7.40079
-7.40387
-7.4095
-7.41863
-7.43209
-7.45012
-7.47235
-7.49832
-7.52783
-7.56058
-7.59636
-7.63509
-7.67663
-7.72076
-7.76713
-7.81529
-7.86473
-7.91486
-7.96506
-8.01473
-8.0633
-8.11028
-8.15522
-8.19774
-8.23752
-8.27433
-8.30799
-8.3384
-8.36549
-8.38925
-8.4097
-8.42689
-8.44089
-8.45181
-8.45973
-8.46478
-8.46705
-8.46663
-8.4636
-8.45799
-8.44984
-8.43912
-8.42579
-8.40977
-8.3909
-8.36901
-8.34383
-8.3151
-8.28255
-8.24595
-8.20499
-8.1593
-8.10858
-8.05245
-7.99066
-7.92281
-7.84872
-7.76806
-7.68066
-7.58632
-7.48494
-7.3764
-7.26063
-7.13763
-7.0074
-6.87006
-6.72568
-6.57449
-6.41664
-6.25244
-6.0821
-5.90599
-5.72435
-5.53763
-5.34611
-5.1502
-4.95016
-4.74633
-4.53898
-4.32844
-4.11503
-3.89907
-3.68082
-3.4605
-3.2383
-3.01438
-2.7889
-2.56194
-2.33365
-2.10406
-1.87327
-1.64124
-1.40807
-1.17368
-0.938125
-0.701346
-0.463369
-0.224162
0.0162445
0.257835
0.500642
0.744674
0.989941
1.23642
1.48408
1.73286
1.98268
2.23347
2.4851
2.73746
2.9904
3.24376
3.49734
3.75096
4.00438
4.25738
4.5097
4.76111
5.01134
5.26015
5.50727
5.75245
5.99542
6.23592
6.47368
6.70845
6.93994
7.1679
7.39207
7.61219
7.82803
8.03939
8.24606
8.44793
8.64477
8.83714
9.02258
9.21072
9.36384
-7.39888
-7.39799
-7.3982
-7.40188
-7.40852
-7.41637
-7.42444
-7.4322
-7.43937
-7.44584
-7.4516
-7.45662
-7.46086
-7.46426
-7.46675
-7.46828
-7.46879
-7.46825
-7.46664
-7.46394
-7.46016
-7.45532
-7.44946
-7.44259
-7.43473
-7.42594
-7.41634
-7.40613
-7.39558
-7.38525
-7.37608
-7.36923
-7.3659
-7.36651
-7.36996
-7.37438
-7.3786
-7.3826
-7.38675
-7.39139
-7.39683
-7.40375
-7.41341
-7.42678
-7.44406
-7.46501
-7.4893
-7.51663
-7.54672
-7.57932
-7.61427
-7.65144
-7.69071
-7.73192
-7.77489
-7.81933
-7.8649
-7.91119
-7.95778
-8.0042
-8.04999
-8.09472
-8.13798
-8.17937
-8.21855
-8.25525
-8.28921
-8.32025
-8.34826
-8.37314
-8.39485
-8.41341
-8.42886
-8.44127
-8.45073
-8.45736
-8.46127
-8.46258
-8.46138
-8.45776
-8.45178
-8.44345
-8.43278
-8.4197
-8.40412
-8.38591
-8.36485
-8.34069
-8.31312
-8.28188
-8.24669
-8.20719
-8.16304
-8.11383
-8.05925
-7.99892
-7.93255
-7.85982
-7.78047
-7.69426
-7.60099
-7.50054
-7.39278
-7.27768
-7.15521
-7.02541
-6.88836
-6.74422
-6.59315
-6.43538
-6.27116
-6.10078
-5.92456
-5.74282
-5.55595
-5.36431
-5.16824
-4.96806
-4.76409
-4.55665
-4.34609
-4.13273
-3.91689
-3.6988
-3.4787
-3.25676
-3.03317
-2.80805
-2.58153
-2.3537
-2.12464
-1.89439
-1.66297
-1.43041
-1.19666
-0.96174
-0.725633
-0.488332
-0.249828
-0.0101352
0.230753
0.472872
0.716244
0.96087
1.20674
1.45381
1.70203
1.95134
2.20165
2.45284
2.7048
2.95738
3.21043
3.46374
3.71714
3.97036
4.22321
4.47541
4.72674
4.97692
5.22572
5.47284
5.71806
5.96109
6.20168
6.43957
6.67448
6.90613
7.13428
7.35864
7.57899
7.79507
8.00667
8.21358
8.41565
8.61258
8.80486
8.98953
9.17715
9.32368
-7.40382
-7.40318
-7.40526
-7.41167
-7.4199
-7.42823
-7.4362
-7.44365
-7.4505
-7.4567
-7.46221
-7.46696
-7.47089
-7.47392
-7.476
-7.47706
-7.47709
-7.47605
-7.47392
-7.47068
-7.46636
-7.46098
-7.45453
-7.44698
-7.43836
-7.42883
-7.41857
-7.40784
-7.39705
-7.3869
-7.37846
-7.37294
-7.37069
-7.37058
-7.37134
-7.37279
-7.37531
-7.37948
-7.38529
-7.39279
-7.40268
-7.41569
-7.43196
-7.45141
-7.47386
-7.49911
-7.52688
-7.55697
-7.58924
-7.62356
-7.65977
-7.69769
-7.73719
-7.77809
-7.8202
-7.86328
-7.90706
-7.9512
-7.99537
-8.03921
-8.08233
-8.12436
-8.16493
-8.20369
-8.24033
-8.27457
-8.30617
-8.33496
-8.36079
-8.38358
-8.40329
-8.41992
-8.43353
-8.4442
-8.45204
-8.45719
-8.45979
-8.45996
-8.45784
-8.45353
-8.44709
-8.43856
-8.42793
-8.41515
-8.40011
-8.38266
-8.36257
-8.33958
-8.31335
-8.28355
-8.24993
-8.21205
-8.16955
-8.12197
-8.069
-8.01019
-7.94529
-7.87387
-7.79574
-7.71057
-7.6182
-7.51846
-7.41126
-7.29654
-7.17429
-7.04459
-6.90749
-6.76321
-6.61188
-6.4538
-6.28916
-6.11836
-5.94163
-5.75943
-5.57206
-5.37996
-5.1834
-4.98279
-4.7784
-4.57066
-4.35986
-4.14639
-3.93049
-3.71244
-3.49245
-3.27069
-3.04736
-2.82257
-2.59646
-2.36908
-2.14055
-1.91085
-1.68006
-1.44812
-1.21505
-0.98081
-0.745417
-0.508842
-0.271082
-0.032139
0.208022
0.449433
0.692129
0.936107
1.18136
1.42785
1.67554
1.92435
2.17421
2.425
2.6766
2.92888
3.18167
3.43478
3.68799
3.94109
4.19382
4.44596
4.69724
4.94742
5.19623
5.44342
5.68871
5.93186
6.1726
6.41065
6.64573
6.87759
7.10593
7.33052
7.55108
7.76739
7.9792
8.18631
8.3885
8.58541
8.77746
8.96126
9.14842
9.28873
-7.4081
-7.40851
-7.41305
-7.42075
-7.42888
-7.43668
-7.44413
-7.45116
-7.45771
-7.46368
-7.46898
-7.47352
-7.47722
-7.48
-7.48182
-7.48261
-7.48235
-7.48101
-7.47858
-7.47505
-7.47045
-7.46476
-7.45791
-7.44996
-7.44113
-7.43161
-7.42159
-7.41137
-7.40153
-7.39297
-7.38653
-7.38231
-7.37932
-7.37676
-7.37517
-7.37548
-7.37795
-7.3829
-7.39085
-7.40198
-7.41619
-7.43339
-7.45344
-7.47619
-7.50143
-7.52899
-7.5587
-7.59042
-7.62403
-7.65937
-7.6963
-7.73468
-7.77435
-7.81513
-7.85684
-7.89923
-7.94206
-7.98504
-8.02788
-8.07022
-8.11174
-8.15206
-8.19087
-8.22783
-8.26262
-8.29499
-8.32471
-8.35157
-8.37546
-8.39628
-8.414
-8.42865
-8.44031
-8.44908
-8.45513
-8.45861
-8.4597
-8.45856
-8.45537
-8.45024
-8.44326
-8.43449
-8.42392
-8.41148
-8.39707
-8.38051
-8.36156
-8.3399
-8.31516
-8.28701
-8.2551
-8.21902
-8.17826
-8.13246
-8.08115
-8.02397
-7.96049
-7.89041
-7.81338
-7.72915
-7.63751
-7.53829
-7.43142
-7.31683
-7.19454
-7.06461
-6.92717
-6.78239
-6.63047
-6.47169
-6.30633
-6.13472
-5.9572
-5.77417
-5.58602
-5.39312
-5.19581
-4.99448
-4.78947
-4.5812
-4.37001
-4.15625
-3.94018
-3.72205
-3.50207
-3.28044
-3.05732
-2.83283
-2.60709
-2.38018
-2.15218
-1.92307
-1.69291
-1.46165
-1.22928
-0.995776
-0.761132
-0.525335
-0.28837
-0.0502108
0.189187
0.429869
0.671863
0.915181
1.15981
1.40572
1.65287
1.90121
2.15062
2.40104
2.65231
2.90432
3.15688
3.40981
3.66288
3.91587
4.16852
4.42062
4.67189
4.9221
5.17097
5.41826
5.66367
5.90698
6.1479
6.38615
6.62145
6.85352
7.08209
7.30691
7.52771
7.74424
7.95627
8.16353
8.36582
8.56264
8.75442
8.93736
9.12415
9.25878
-7.41003
-7.41192
-7.41815
-7.42578
-7.43327
-7.44054
-7.4476
-7.45436
-7.46072
-7.46655
-7.47174
-7.47619
-7.4798
-7.48249
-7.48422
-7.48492
-7.48458
-7.48316
-7.48066
-7.47709
-7.47243
-7.46665
-7.45978
-7.45199
-7.44353
-7.43459
-7.42543
-7.41656
-7.40854
-7.40182
-7.39632
-7.39155
-7.38715
-7.38342
-7.3813
-7.38171
-7.38514
-7.3919
-7.40203
-7.41535
-7.43167
-7.45085
-7.47268
-7.497
-7.52362
-7.55239
-7.58319
-7.61588
-7.65032
-7.68637
-7.72392
-7.7628
-7.80285
-7.84388
-7.88569
-7.92806
-7.97073
-8.01341
-8.05581
-8.09757
-8.13838
-8.17788
-8.21572
-8.25159
-8.28517
-8.31618
-8.3444
-8.36964
-8.39177
-8.4107
-8.42643
-8.43902
-8.44857
-8.45527
-8.45929
-8.46087
-8.46023
-8.45759
-8.45315
-8.44707
-8.43948
-8.43044
-8.41995
-8.40793
-8.39426
-8.37872
-8.36106
-8.34092
-8.31787
-8.29153
-8.26154
-8.2274
-8.18857
-8.14465
-8.0951
-8.03958
-7.97756
-7.90877
-7.83277
-7.74937
-7.6583
-7.55943
-7.45267
-7.33797
-7.21539
-7.08497
-6.9469
-6.80131
-6.64852
-6.48873
-6.32235
-6.14962
-5.97102
-5.78689
-5.59769
-5.40372
-5.20543
-5.00315
-4.79735
-4.5884
-4.3767
-4.16253
-3.9462
-3.72791
-3.5079
-3.28635
-3.06341
-2.83923
-2.61386
-2.38745
-2.15996
-1.9315
-1.70198
-1.47145
-1.23981
-1.00708
-0.773228
-0.538254
-0.302127
-0.0647844
0.173821
0.413746
0.655021
0.897661
1.14166
1.38699
1.63362
1.88147
2.13047
2.38052
2.63149
2.88324
3.13561
3.38839
3.64135
3.89424
4.14686
4.39894
4.65025
4.90052
5.1495
5.3969
5.6425
5.88599
6.12714
6.36562
6.60115
6.83346
7.06228
7.28734
7.50838
7.72514
7.93737
8.14478
8.34712
8.54383
8.73531
8.91741
9.1039
9.2335
-7.40824
-7.41146
-7.41807
-7.4252
-7.43227
-7.43928
-7.44617
-7.45285
-7.4592
-7.46506
-7.47033
-7.47488
-7.47862
-7.48144
-7.48331
-7.48415
-7.48393
-7.48263
-7.48025
-7.47678
-7.47224
-7.46663
-7.46007
-7.45276
-7.44499
-7.43702
-7.42923
-7.4219
-7.41511
-7.40882
-7.40299
-7.39759
-7.39289
-7.38948
-7.38817
-7.38959
-7.39409
-7.40182
-7.41282
-7.42696
-7.44408
-7.464
-7.48654
-7.51151
-7.53876
-7.56816
-7.59958
-7.6329
-7.668
-7.70473
-7.74297
-7.78256
-7.82331
-7.86502
-7.9075
-7.95048
-7.99371
-8.03686
-8.07962
-8.12163
-8.16253
-8.20196
-8.23955
-8.27496
-8.30786
-8.33796
-8.36502
-8.38886
-8.40934
-8.4264
-8.44005
-8.4504
-8.45763
-8.46195
-8.46366
-8.46305
-8.46041
-8.45603
-8.45017
-8.44303
-8.43477
-8.42547
-8.41511
-8.40362
-8.39082
-8.37649
-8.36032
-8.3419
-8.32075
-8.29644
-8.26855
-8.23651
-8.19978
-8.15782
-8.11016
-8.05628
-7.99577
-7.92818
-7.85317
-7.77046
-7.67982
-7.58113
-7.47429
-7.35929
-7.23616
-7.10503
-6.96605
-6.81944
-6.66547
-6.50446
-6.33675
-6.1627
-5.98276
-5.79732
-5.60681
-5.4116
-5.21211
-5.00876
-4.80203
-4.59231
-4.37999
-4.16536
-3.94869
-3.73021
-3.51015
-3.28866
-3.06591
-2.84202
-2.61708
-2.39115
-2.16426
-1.93643
-1.70763
-1.47784
-1.24699
-1.01506
-0.782056
-0.547954
-0.312698
-0.0762111
0.161574
0.400711
0.641243
0.883186
1.12654
1.37127
1.61735
1.86471
2.11329
2.36296
2.61362
2.86512
3.11732
3.36997
3.62283
3.87566
4.12826
4.38035
4.63172
4.88209
5.1312
5.37877
5.62456
5.86829
6.10969
6.34843
6.58423
6.81679
7.04587
7.27119
7.49247
7.70947
7.92189
8.12945
8.33183
8.52841
8.71958
8.90089
9.08711
9.21237
-7.40092
-7.40485
-7.41126
-7.41822
-7.42534
-7.43245
-7.43948
-7.44633
-7.45289
-7.45903
-7.46461
-7.46948
-7.47355
-7.4767
-7.47886
-7.47999
-7.48004
-7.479
-7.47687
-7.47365
-7.4694
-7.46419
-7.45822
-7.45172
-7.44494
-7.43803
-7.43111
-7.4243
-7.41764
-7.41117
-7.40508
-7.39971
-7.39546
-7.39279
-7.39226
-7.39436
-7.39941
-7.40757
-7.41887
-7.43325
-7.45057
-7.47067
-7.49337
-7.51855
-7.54606
-7.57579
-7.60765
-7.64151
-7.67726
-7.71477
-7.7539
-7.79446
-7.8363
-7.87919
-7.9229
-7.96714
-8.01161
-8.05596
-8.09984
-8.14284
-8.18458
-8.22463
-8.26259
-8.29807
-8.33071
-8.36022
-8.38633
-8.40885
-8.42766
-8.44272
-8.4541
-8.46194
-8.46651
-8.46814
-8.4672
-8.46407
-8.45916
-8.45283
-8.44538
-8.43709
-8.42814
-8.41861
-8.4085
-8.39766
-8.38593
-8.373
-8.35852
-8.34205
-8.32301
-8.30093
-8.27534
-8.24557
-8.21105
-8.17115
-8.12542
-8.07323
-8.01418
-7.94774
-7.87362
-7.79149
-7.70115
-7.60248
-7.49538
-7.37989
-7.25604
-7.124
-6.98388
-6.83605
-6.68068
-6.51825
-6.34899
-6.17345
-5.99197
-5.80505
-5.61305
-5.41646
-5.21566
-5.01119
-4.80344
-4.59293
-4.37995
-4.16484
-3.94783
-3.72916
-3.50905
-3.28764
-3.06511
-2.84155
-2.61706
-2.39165
-2.16541
-1.93825
-1.71023
-1.48122
-1.25121
-1.02014
-0.788025
-0.554841
-0.320499
-0.0849102
0.15201
0.390324
0.630074
0.871289
1.11396
1.35808
1.60359
1.85047
2.0986
2.34792
2.59827
2.84956
3.1016
3.35417
3.60695
3.85976
4.11234
4.3645
4.61595
4.86644
5.11571
5.36349
5.60949
5.8535
6.09518
6.33422
6.57029
6.80314
7.03248
7.25807
7.47961
7.69683
7.90946
8.11715
8.31956
8.516
8.70685
8.88744
9.07339
9.19498
-7.3864
-7.39041
-7.39688
-7.4044
-7.41211
-7.41968
-7.42708
-7.43432
-7.44131
-7.44794
-7.45404
-7.45944
-7.46399
-7.46759
-7.47018
-7.47171
-7.47216
-7.47151
-7.46981
-7.46707
-7.46339
-7.45887
-7.45366
-7.4479
-7.44175
-7.4353
-7.42866
-7.42188
-7.41509
-7.40854
-7.40252
-7.39733
-7.39337
-7.39111
-7.39102
-7.39351
-7.39883
-7.40715
-7.4185
-7.43284
-7.45005
-7.47002
-7.49262
-7.51777
-7.54536
-7.57531
-7.60754
-7.64196
-7.67846
-7.7169
-7.75716
-7.79907
-7.84244
-7.88703
-7.93257
-7.97871
-8.02511
-8.07136
-8.11705
-8.1617
-8.20487
-8.24608
-8.28487
-8.32081
-8.35351
-8.38263
-8.40788
-8.42907
-8.44609
-8.45894
-8.46772
-8.47268
-8.47418
-8.47267
-8.46869
-8.46273
-8.45528
-8.44677
-8.4376
-8.42809
-8.41848
-8.40883
-8.3991
-8.38911
-8.37862
-8.36729
-8.35474
-8.34041
-8.3237
-8.30407
-8.28092
-8.25359
-8.22134
-8.18361
-8.13979
-8.08932
-8.03165
-7.96632
-7.89298
-7.81133
-7.72118
-7.62239
-7.51493
-7.3988
-7.2741
-7.14096
-6.99962
-6.85034
-6.69349
-6.52941
-6.35853
-6.18132
-5.99821
-5.80966
-5.61612
-5.41806
-5.21595
-5.01031
-4.8016
-4.59028
-4.37667
-4.16109
-3.94376
-3.72493
-3.50479
-3.28351
-3.06122
-2.83802
-2.614
-2.38918
-2.1636
-1.93721
-1.70999
-1.48187
-1.25276
-1.02263
-0.791505
-0.559319
-0.325963
-0.091326
0.144675
0.382116
0.62104
0.861486
1.10345
1.34692
1.59186
1.83823
2.08593
2.33487
2.58494
2.83601
3.08795
3.34049
3.59323
3.846
4.09861
4.35083
4.60239
4.85304
5.1025
5.3505
5.59675
5.84105
6.08307
6.32242
6.55879
6.79193
7.02156
7.24742
7.46923
7.68669
7.89952
8.10736
8.30981
8.5061
8.69666
8.87656
9.06223
9.18083
-7.36402
-7.36778
-7.37499
-7.38374
-7.39241
-7.40059
-7.4085
-7.41629
-7.42396
-7.43136
-7.43825
-7.44437
-7.44957
-7.45375
-7.45691
-7.45899
-7.46001
-7.45997
-7.4589
-7.45683
-7.45383
-7.44998
-7.44539
-7.44014
-7.43434
-7.42804
-7.42139
-7.41452
-7.40767
-7.40107
-7.39499
-7.38982
-7.38599
-7.38393
-7.38406
-7.3867
-7.39209
-7.40037
-7.41155
-7.42561
-7.44248
-7.46211
-7.48442
-7.50937
-7.5369
-7.567
-7.5996
-7.63465
-7.67202
-7.71163
-7.75334
-7.79696
-7.8423
-7.88908
-7.93698
-7.98562
-8.03458
-8.08336
-8.13148
-8.17837
-8.2235
-8.26629
-8.30627
-8.34292
-8.37581
-8.40457
-8.42892
-8.44864
-8.46363
-8.47387
-8.47956
-8.48105
-8.4789
-8.47376
-8.46632
-8.45723
-8.44704
-8.43626
-8.42534
-8.41467
-8.40453
-8.39495
-8.3858
-8.37686
-8.36781
-8.3583
-8.34781
-8.33582
-8.32158
-8.30449
-8.28394
-8.25909
-8.22918
-8.19363
-8.15173
-8.10295
-8.04663
-7.98238
-7.90976
-7.82855
-7.73853
-7.63957
-7.53168
-7.41484
-7.28923
-7.15492
-7.01225
-6.86145
-6.70302
-6.53723
-6.36465
-6.18569
-6.00091
-5.81068
-5.61559
-5.41605
-5.21269
-5.00593
-4.79632
-4.58419
-4.36999
-4.15392
-3.93629
-3.71729
-3.49715
-3.27602
-3.05401
-2.83126
-2.60777
-2.38363
-2.15878
-1.93325
-1.70695
-1.47985
-1.2518
-1.02278
-0.79278
-0.561709
-0.329432
-0.0958325
0.13918
0.375681
0.613729
0.853353
1.09457
1.33737
1.58171
1.82754
2.0748
2.32336
2.57313
2.82399
3.07591
3.32851
3.58128
3.83404
4.0867
4.33901
4.59072
4.84155
5.09124
5.33948
5.58602
5.83066
6.07308
6.31279
6.54947
6.7829
7.01283
7.23898
7.46106
7.67875
7.89179
8.09978
8.30227
8.49842
8.68868
8.86795
9.05326
9.16955
-7.33442
-7.3383
-7.34683
-7.35721
-7.36694
-7.37577
-7.38443
-7.39314
-7.40172
-7.41005
-7.41797
-7.4251
-7.43113
-7.43597
-7.43976
-7.44253
-7.44428
-7.44499
-7.44468
-7.44333
-7.44102
-7.43776
-7.43362
-7.42866
-7.42298
-7.41669
-7.40996
-7.40294
-7.39588
-7.38907
-7.38287
-7.37766
-7.37386
-7.37186
-7.37201
-7.37461
-7.37982
-7.38778
-7.39851
-7.41205
-7.42835
-7.44743
-7.46925
-7.49383
-7.52117
-7.55131
-7.5842
-7.61985
-7.65819
-7.69913
-7.74255
-7.78825
-7.83601
-7.88548
-7.9363
-7.98799
-8.04006
-8.09191
-8.14293
-8.19247
-8.23987
-8.2845
-8.32576
-8.36309
-8.39603
-8.4242
-8.44729
-8.46511
-8.47751
-8.48456
-8.4865
-8.48392
-8.47761
-8.46847
-8.45735
-8.44506
-8.4322
-8.41926
-8.40677
-8.39515
-8.38467
-8.37538
-8.367
-8.35921
-8.35171
-8.34402
-8.33566
-8.32603
-8.31424
-8.29983
-8.28188
-8.25952
-8.23199
-8.19861
-8.15874
-8.11168
-8.05684
-7.99369
-7.92188
-7.84115
-7.75126
-7.65214
-7.54377
-7.42623
-7.2996
-7.16407
-7.01993
-6.86757
-6.70742
-6.53993
-6.36561
-6.18494
-5.9984
-5.80649
-5.6098
-5.40887
-5.20428
-4.9965
-4.78598
-4.57308
-4.35816
-4.14151
-3.92344
-3.70419
-3.48396
-3.26293
-3.0412
-2.81888
-2.596
-2.3726
-2.14864
-1.9241
-1.69891
-1.47302
-1.24632
-1.01874
-0.790139
-0.560373
-0.329332
-0.0969229
0.136953
0.372365
0.609386
0.848044
1.08837
1.33034
1.57393
1.81908
2.06573
2.31376
2.56307
2.81355
3.06529
3.31788
3.57064
3.82339
4.07609
4.32851
4.58037
4.83141
5.08133
5.32984
5.5767
5.82179
6.06472
6.30483
6.54184
6.77558
7.00582
7.23229
7.45466
7.67262
7.8859
8.09408
8.29661
8.49262
8.68259
8.86128
9.04617
9.16077
-7.29995
-7.30458
-7.31494
-7.32733
-7.33828
-7.34771
-7.35682
-7.36636
-7.37617
-7.3858
-7.39496
-7.40331
-7.41038
-7.41594
-7.42036
-7.42385
-7.42638
-7.42788
-7.42833
-7.42768
-7.42596
-7.42315
-7.41931
-7.41451
-7.40885
-7.40243
-7.39546
-7.38816
-7.38082
-7.37377
-7.36739
-7.36206
-7.35815
-7.35603
-7.35597
-7.35821
-7.36291
-7.3702
-7.38013
-7.39277
-7.40814
-7.42631
-7.44731
-7.47126
-7.49819
-7.5282
-7.56132
-7.59759
-7.63698
-7.67944
-7.72485
-7.77297
-7.82355
-7.87615
-7.93033
-7.98548
-8.04098
-8.09611
-8.15014
-8.20231
-8.25185
-8.29805
-8.34024
-8.37782
-8.41032
-8.43735
-8.45866
-8.47401
-8.48327
-8.48652
-8.48417
-8.47701
-8.4662
-8.45292
-8.43807
-8.42262
-8.40726
-8.39253
-8.37891
-8.36668
-8.35597
-8.34682
-8.33897
-8.33216
-8.32594
-8.31993
-8.31383
-8.30655
-8.29766
-8.28604
-8.27102
-8.25151
-8.22673
-8.19594
-8.15851
-8.11368
-8.06087
-7.99938
-7.9288
-7.84877
-7.75916
-7.65992
-7.55108
-7.43275
-7.30501
-7.16815
-7.0224
-6.86831
-6.70627
-6.53692
-6.36069
-6.17813
-5.98968
-5.79599
-5.59758
-5.39517
-5.18923
-4.98034
-4.76881
-4.55506
-4.33935
-4.12208
-3.90354
-3.684
-3.46367
-3.2427
-3.02124
-2.79932
-2.57705
-2.35437
-2.13129
-1.90771
-1.68362
-1.45892
-1.23358
-1.00743
-0.78022
-0.551786
-0.322034
-0.0908732
0.141785
0.376031
0.611926
0.849526
1.08884
1.32987
1.57258
1.81693
2.06282
2.31015
2.55876
2.80852
3.05925
3.31081
3.56298
3.81551
4.06809
4.32047
4.57234
4.82344
5.07344
5.32208
5.56912
5.81455
6.05788
6.29831
6.5356
6.76965
7.00022
7.22701
7.4497
7.66799
7.8816
8.09001
8.2926
8.48845
8.67815
8.85627
9.04068
9.15423
-7.2627
-7.26836
-7.28103
-7.29544
-7.30691
-7.31673
-7.32696
-7.33783
-7.34886
-7.3597
-7.3701
-7.37971
-7.38789
-7.3944
-7.39967
-7.40405
-7.40749
-7.40986
-7.41111
-7.41116
-7.41
-7.40761
-7.40401
-7.39926
-7.39349
-7.38683
-7.37954
-7.37184
-7.3641
-7.35664
-7.34986
-7.3441
-7.33972
-7.33701
-7.33623
-7.33759
-7.34123
-7.34728
-7.35583
-7.36702
-7.3809
-7.39767
-7.41744
-7.44044
-7.46674
-7.49655
-7.52991
-7.56697
-7.60767
-7.65195
-7.69963
-7.75048
-7.80406
-7.85991
-7.91744
-7.97601
-8.03487
-8.09315
-8.15001
-8.20452
-8.25591
-8.30334
-8.3461
-8.38355
-8.41518
-8.44058
-8.45965
-8.47214
-8.47802
-8.47736
-8.47063
-8.45889
-8.44382
-8.42689
-8.4089
-8.39052
-8.37271
-8.35618
-8.34141
-8.32846
-8.31742
-8.30795
-8.30028
-8.29393
-8.28889
-8.28467
-8.28053
-8.27594
-8.2697
-8.26112
-8.24911
-8.2327
-8.21096
-8.18315
-8.14847
-8.1062
-8.05562
-7.99608
-7.92696
-7.8479
-7.7588
-7.65966
-7.55055
-7.43157
-7.30292
-7.16483
-7.01771
-6.862
-6.69827
-6.52708
-6.34901
-6.16457
-5.97433
-5.77889