/*--------------------------------*- C++ -*----------------------------------*\
  =========                 |
  \\      /  F ield         | OpenFOAM: The Open Source CFD Toolbox
   \\    /   O peration     | Website:  https://openfoam.org
    \\  /    A nd           | Version:  13
     \\/     M anipulation  |
\*---------------------------------------------------------------------------*/
FoamFile
{
    format      ascii;
    class       surfaceScalarField;
    location    "1100";
    object      phi;
}
// * * * * * * * * * * * * * * * * * * * * * * * * * * * * * * * * * * * * * //

dimensions      [0 3 -1 0 0 0 0];

internalField   nonuniform List<scalar> 
24170
(
3.04256e-06
1.45861e-07
2.88027e-06
1.62333e-07
2.73398e-06
1.46276e-07
2.60331e-06
1.30645e-07
2.48763e-06
1.15671e-07
2.3869e-06
1.0068e-07
2.30161e-06
8.53076e-08
2.23064e-06
7.09498e-08
2.17213e-06
5.8495e-08
2.12627e-06
4.58344e-08
2.09382e-06
3.24413e-08
2.0724e-06
2.14055e-08
2.05753e-06
1.48713e-08
2.04781e-06
9.71489e-09
2.04265e-06
5.15674e-09
2.04052e-06
2.13261e-09
2.0422e-06
-1.6677e-09
-4.78216e-09
2.04697e-06
3.49125e-06
7.18754e-08
3.53987e-06
1.13789e-07
3.56639e-06
1.19793e-07
3.57338e-06
1.23678e-07
3.56777e-06
1.21307e-07
3.55194e-06
1.16503e-07
3.52834e-06
1.08948e-07
3.50189e-06
9.74066e-08
3.47383e-06
8.65527e-08
3.44211e-06
7.75473e-08
3.40703e-06
6.75287e-08
3.37245e-06
5.59751e-08
3.33958e-06
4.77378e-08
3.30801e-06
4.12885e-08
3.27766e-06
3.54985e-08
3.24865e-06
3.11354e-08
3.22144e-06
2.55372e-08
2.1343e-08
3.1953e-06
3.67981e-06
5.45906e-08
3.69806e-06
9.55759e-08
3.71529e-06
1.0253e-07
3.73323e-06
1.05726e-07
3.74975e-06
1.04776e-07
3.76493e-06
1.01285e-07
3.77862e-06
9.52931e-08
3.78921e-06
8.68201e-08
3.79685e-06
7.89114e-08
3.8024e-06
7.19839e-08
3.80542e-06
6.45136e-08
3.80509e-06
5.63136e-08
3.80277e-06
5.00664e-08
3.79885e-06
4.52236e-08
3.79327e-06
4.10799e-08
3.78678e-06
3.76449e-08
3.77885e-06
3.34747e-08
2.98228e-08
3.77039e-06
3.93535e-06
4.46398e-08
3.94707e-06
8.39128e-08
3.95524e-06
9.43936e-08
3.96315e-06
9.78468e-08
3.97027e-06
9.76932e-08
3.97701e-06
9.45663e-08
3.98368e-06
8.86681e-08
3.9896e-06
8.0919e-08
3.99501e-06
7.35171e-08
4.00034e-06
6.66645e-08
4.00532e-06
5.95458e-08
4.00932e-06
5.23247e-08
4.01284e-06
4.65507e-08
4.01617e-06
4.1896e-08
4.0193e-06
3.79594e-08
4.02234e-06
3.46114e-08
4.02479e-06
3.10289e-08
2.81426e-08
4.02646e-06
4.21677e-06
3.5013e-08
4.22487e-06
7.58384e-08
4.23209e-06
8.71389e-08
4.23929e-06
9.06246e-08
4.24565e-06
9.13252e-08
4.25131e-06
8.88868e-08
4.25635e-06
8.36457e-08
4.2605e-06
7.67828e-08
4.26407e-06
6.99497e-08
4.2674e-06
6.33397e-08
4.27034e-06
5.66152e-08
4.27261e-06
5.00583e-08
4.27462e-06
4.45613e-08
4.27657e-06
3.99573e-08
4.27854e-06
3.60053e-08
4.28061e-06
3.25519e-08
4.28251e-06
2.91428e-08
2.62808e-08
4.28438e-06
4.51697e-06
2.71365e-08
4.5243e-06
6.85648e-08
4.53137e-06
8.00874e-08
4.53815e-06
8.38671e-08
4.54454e-06
8.49528e-08
4.55039e-06
8.30582e-08
4.55557e-06
7.84995e-08
4.55989e-06
7.24885e-08
4.56359e-06
6.62572e-08
4.56689e-06
6.00511e-08
4.5697e-06
5.3815e-08
4.57191e-06
4.78569e-08
4.57379e-06
4.26869e-08
4.57552e-06
3.82307e-08
4.5772e-06
3.43383e-08
4.57888e-06
3.08824e-08
4.58042e-06
2.75969e-08
2.47042e-08
4.58198e-06
4.83796e-06
2.19085e-08
4.84635e-06
6.01964e-08
4.85357e-06
7.28318e-08
4.86e-06
7.7414e-08
4.86624e-06
7.86965e-08
4.87203e-06
7.72558e-08
4.87717e-06
7.33627e-08
4.88159e-06
6.80776e-08
4.88546e-06
6.23897e-08
4.88889e-06
5.66218e-08
4.89184e-06
5.08716e-08
4.89429e-06
4.54172e-08
4.89642e-06
4.05691e-08
4.89836e-06
3.63046e-08
4.90019e-06
3.25211e-08
4.90195e-06
2.91231e-08
4.9036e-06
2.59545e-08
2.30807e-08
4.90523e-06
5.18315e-06
1.83483e-08
5.19196e-06
5.1425e-08
5.19921e-06
6.55994e-08
5.20571e-06
7.09339e-08
5.21193e-06
7.24886e-08
5.21774e-06
7.14675e-08
5.22293e-06
6.81862e-08
5.22749e-06
6.3537e-08
5.23152e-06
5.83714e-08
5.23509e-06
5.30566e-08
5.23819e-06
4.77779e-08
5.24084e-06
4.2765e-08
5.24319e-06
3.8231e-08
5.24532e-06
3.41755e-08
5.24731e-06
3.05378e-08
5.2492e-06
2.72432e-08
5.25097e-06
2.41868e-08
2.13624e-08
5.25267e-06
5.55425e-06
1.54411e-08
5.56214e-06
4.35518e-08
5.56939e-06
5.83262e-08
5.57609e-06
6.42167e-08
5.58247e-06
6.60969e-08
5.58845e-06
6.54793e-08
5.59385e-06
6.27896e-08
5.59863e-06
5.87626e-08
5.60286e-06
5.41359e-08
5.60662e-06
4.93024e-08
5.60992e-06
4.44867e-08
5.61279e-06
3.9896e-08
5.61535e-06
3.56786e-08
5.61768e-06
3.18562e-08
5.61983e-06
2.83931e-08
5.62185e-06
2.52341e-08
5.62373e-06
2.23063e-08
1.95765e-08
5.62552e-06
5.95223e-06
1.29944e-08
5.95904e-06
3.67764e-08
5.96612e-06
5.12677e-08
5.97293e-06
5.7436e-08
5.97944e-06
5.96041e-08
5.98559e-06
5.93436e-08
5.99123e-06
5.717e-08
5.99628e-06
5.37281e-08
6.00078e-06
4.9645e-08
6.00478e-06
4.5308e-08
6.00831e-06
4.09563e-08
6.01144e-06
3.67756e-08
6.01423e-06
3.2886e-08
6.01677e-06
2.93212e-08
6.01911e-06
2.60609e-08
6.02127e-06
2.30718e-08
6.02328e-06
2.02944e-08
1.76875e-08
6.02517e-06
6.3789e-06
1.09145e-08
6.3848e-06
3.08884e-08
6.39157e-06
4.44946e-08
6.39833e-06
5.0674e-08
6.40489e-06
5.30401e-08
6.41116e-06
5.30794e-08
6.41697e-06
5.13635e-08
6.42225e-06
4.8454e-08
6.427e-06
4.48963e-08
6.43126e-06
4.10542e-08
6.43506e-06
3.71612e-08
6.43845e-06
3.33846e-08
6.4415e-06
2.9839e-08
6.44427e-06
2.65496e-08
6.44681e-06
2.35224e-08
6.44915e-06
2.07272e-08
6.45131e-06
1.81261e-08
1.56871e-08
6.45332e-06
5.74242e-06
9.33594e-09
5.74679e-06
2.65417e-08
5.7522e-06
3.90994e-08
5.7578e-06
4.50864e-08
5.76331e-06
4.75331e-08
5.76863e-06
4.7768e-08
5.77363e-06
4.63747e-08
5.77823e-06
4.38628e-08
5.78242e-06
4.07168e-08
5.7862e-06
3.72728e-08
5.7896e-06
3.37518e-08
5.79267e-06
3.03252e-08
5.79545e-06
2.70585e-08
5.79798e-06
2.40286e-08
5.80029e-06
2.12029e-08
5.80242e-06
1.86007e-08
5.80438e-06
1.61666e-08
1.38971e-08
5.80618e-06
6.99978e-06
7.71973e-09
7.00424e-06
2.21024e-08
7.01006e-06
3.32823e-08
7.01628e-06
3.8879e-08
7.02251e-06
4.13029e-08
7.02859e-06
4.16941e-08
7.03437e-06
4.06062e-08
7.03974e-06
3.84983e-08
7.04468e-06
3.57822e-08
7.04918e-06
3.27665e-08
7.05328e-06
2.96686e-08
7.05699e-06
2.66061e-08
7.06038e-06
2.36884e-08
7.06347e-06
2.09339e-08
7.0663e-06
1.83771e-08
7.0689e-06
1.59916e-08
7.0713e-06
1.37852e-08
1.17035e-08
7.07349e-06
8.53247e-06
6.09462e-09
8.53696e-06
1.7626e-08
8.54313e-06
2.7123e-08
8.54991e-06
3.20936e-08
8.55685e-06
3.43682e-08
8.56371e-06
3.48357e-08
8.5703e-06
3.40268e-08
8.57649e-06
3.23033e-08
8.58224e-06
3.00342e-08
8.58754e-06
2.74727e-08
8.5924e-06
2.48174e-08
8.59685e-06
2.21689e-08
8.60092e-06
1.96235e-08
8.60466e-06
1.72042e-08
8.60808e-06
1.49455e-08
8.61125e-06
1.28402e-08
8.61414e-06
1.08812e-08
9.06109e-09
8.61682e-06
1.04008e-05
4.49471e-09
1.04053e-05
1.31573e-08
1.04117e-05
2.0703e-08
1.0419e-05
2.48045e-08
1.04266e-05
2.67416e-08
1.04343e-05
2.72037e-08
1.04417e-05
2.65897e-08
1.04488e-05
2.5238e-08
1.04554e-05
2.33964e-08
1.04616e-05
2.13177e-08
1.04673e-05
1.91114e-08
1.04726e-05
1.69264e-08
1.04774e-05
1.47754e-08
1.04819e-05
1.27534e-08
1.0486e-05
1.083e-08
1.04898e-05
9.05993e-09
1.04933e-05
7.39524e-09
5.8654e-09
1.04964e-05
1.26784e-05
2.92458e-09
1.26828e-05
8.68963e-09
1.26895e-05
1.40818e-08
1.26972e-05
1.70403e-08
1.27055e-05
1.84581e-08
1.2714e-05
1.8761e-08
1.27223e-05
1.82741e-08
1.27303e-05
1.7216e-08
1.27379e-05
1.58029e-08
1.2745e-05
1.4174e-08
1.27517e-05
1.24701e-08
1.27579e-05
1.07374e-08
1.27636e-05
9.06499e-09
1.27689e-05
7.45225e-09
1.27738e-05
5.95146e-09
1.27783e-05
4.54028e-09
1.27825e-05
3.24698e-09
2.04103e-09
1.27863e-05
1.54548e-05
1.3547e-09
1.54593e-05
4.15891e-09
1.54662e-05
7.2058e-09
1.54745e-05
8.77376e-09
1.54835e-05
9.44593e-09
1.54928e-05
9.44623e-09
1.55021e-05
8.96516e-09
1.55112e-05
8.14034e-09
1.55199e-05
7.09841e-09
1.55282e-05
5.93137e-09
1.55359e-05
4.71503e-09
1.55432e-05
3.49717e-09
1.55499e-05
2.31778e-09
1.55562e-05
1.19573e-09
1.5562e-05
1.47878e-10
1.55673e-05
-8.20617e-10
1.55723e-05
-1.70897e-09
-2.51512e-09
1.55769e-05
1.88393e-05
-2.91335e-10
1.88441e-05
-6.45805e-10
1.88515e-05
-1.7995e-10
1.88606e-05
-2.60904e-10
1.88706e-05
-5.4993e-10
1.8881e-05
-1.00827e-09
1.88916e-05
-1.58816e-09
1.8902e-05
-2.24709e-09
1.8912e-05
-2.94615e-09
1.89216e-05
-3.65591e-09
1.89307e-05
-4.35353e-09
1.89392e-05
-5.02134e-09
1.89472e-05
-5.64736e-09
1.89546e-05
-6.2238e-09
1.89615e-05
-6.74659e-09
1.89679e-05
-7.21286e-09
1.89738e-05
-7.62514e-09
-7.97827e-09
1.89793e-05
2.29653e-05
-2.20699e-09
2.29709e-05
-6.24686e-09
2.29795e-05
-8.77671e-09
2.29901e-05
-1.08065e-08
2.30018e-05
-1.2244e-08
2.30141e-05
-1.32852e-08
2.30265e-05
-1.40129e-08
2.30388e-05
-1.45216e-08
2.30507e-05
-1.4842e-08
2.30621e-05
-1.50454e-08
2.30729e-05
-1.51467e-08
2.30831e-05
-1.51873e-08
2.30926e-05
-1.51678e-08
2.31015e-05
-1.51136e-08
2.31097e-05
-1.50212e-08
2.31174e-05
-1.49055e-08
2.31245e-05
-1.47635e-08
-1.45978e-08
2.31312e-05
1.68123e-05
-3.83153e-09
1.6817e-05
-1.08393e-08
1.68238e-05
-1.5638e-08
1.68321e-05
-1.90244e-08
1.6841e-05
-2.1234e-08
1.68504e-05
-2.26054e-08
1.68598e-05
-2.33996e-08
1.6869e-05
-2.37083e-08
1.68778e-05
-2.37183e-08
1.68863e-05
-2.34827e-08
1.68943e-05
-2.31309e-08
1.69018e-05
-2.26653e-08
1.69088e-05
-2.21682e-08
1.69153e-05
-2.16217e-08
1.69213e-05
-2.10819e-08
1.6927e-05
-2.05231e-08
1.69322e-05
-1.99839e-08
-1.94304e-08
1.69371e-05
1.46363e-05
-5.58482e-09
1.46412e-05
-1.5677e-08
1.46481e-05
-2.25501e-08
1.46561e-05
-2.70306e-08
1.46647e-05
-2.97634e-08
1.46734e-05
-3.13538e-08
1.46821e-05
-3.20629e-08
1.46905e-05
-3.21335e-08
1.46986e-05
-3.17444e-08
1.47062e-05
-3.10866e-08
1.47133e-05
-3.02483e-08
1.472e-05
-2.93219e-08
1.47262e-05
-2.8344e-08
1.47319e-05
-2.73645e-08
1.47372e-05
-2.63938e-08
1.47421e-05
-2.54561e-08
1.47467e-05
-2.45467e-08
-2.36707e-08
1.47509e-05
1.27422e-05
-7.61996e-09
1.27476e-05
-2.10771e-08
1.27548e-05
-2.97833e-08
1.27628e-05
-3.50084e-08
1.27711e-05
-3.80627e-08
1.27795e-05
-3.97032e-08
1.27877e-05
-4.02366e-08
1.27955e-05
-3.99445e-08
1.28029e-05
-3.91266e-08
1.28098e-05
-3.79946e-08
1.28162e-05
-3.66761e-08
1.28222e-05
-3.52755e-08
1.28277e-05
-3.38433e-08
1.28328e-05
-3.24444e-08
1.28375e-05
-3.10821e-08
1.28418e-05
-2.97912e-08
1.28458e-05
-2.85582e-08
-2.73885e-08
1.28495e-05
1.10934e-05
-1.01269e-08
1.10997e-05
-2.72912e-08
1.11073e-05
-3.74397e-08
1.11153e-05
-4.30204e-08
1.11235e-05
-4.61981e-08
1.11316e-05
-4.77613e-08
1.11393e-05
-4.79851e-08
1.11466e-05
-4.72574e-08
1.11535e-05
-4.59584e-08
1.11598e-05
-4.43246e-08
1.11656e-05
-4.2515e-08
1.1171e-05
-4.06288e-08
1.11759e-05
-3.87616e-08
1.11804e-05
-3.69451e-08
1.11846e-05
-3.52291e-08
1.11884e-05
-3.36017e-08
1.11919e-05
-3.20844e-08
-3.06428e-08
1.11952e-05
9.65848e-06
-1.33944e-08
9.66569e-06
-3.44928e-08
9.67373e-06
-4.54658e-08
9.68175e-06
-5.10397e-08
9.68978e-06
-5.42168e-08
9.69759e-06
-5.55676e-08
9.70498e-06
-5.53635e-08
9.71185e-06
-5.41268e-08
9.7182e-06
-5.23038e-08
9.72403e-06
-5.01503e-08
9.72935e-06
-4.78287e-08
9.73419e-06
-4.54669e-08
9.7386e-06
-4.31538e-08
9.74261e-06
-4.09589e-08
9.74628e-06
-3.88946e-08
9.74966e-06
-3.69763e-08
9.75278e-06
-3.52065e-08
-3.3546e-08
9.75568e-06
8.40978e-06
-1.78145e-08
8.41807e-06
-4.27847e-08
8.42637e-06
-5.37568e-08
8.4344e-06
-5.90684e-08
8.44236e-06
-6.2168e-08
8.44998e-06
-6.31839e-08
8.45707e-06
-6.24448e-08
8.46358e-06
-6.06346e-08
8.46953e-06
-5.82486e-08
8.47494e-06
-5.55505e-08
8.47982e-06
-5.27086e-08
8.48423e-06
-4.98689e-08
8.48822e-06
-4.71356e-08
8.49184e-06
-4.45734e-08
8.49515e-06
-4.2198e-08
8.49818e-06
-4.00103e-08
8.50099e-06
-3.8011e-08
-3.61553e-08
8.50359e-06
7.32333e-06
-2.38618e-08
7.33281e-06
-5.22486e-08
7.34146e-06
-6.24077e-08
7.34971e-06
-6.73127e-08
7.35778e-06
-7.02266e-08
7.36538e-06
-7.07831e-08
7.37237e-06
-6.94307e-08
7.37875e-06
-6.70032e-08
7.38453e-06
-6.40234e-08
7.38974e-06
-6.07627e-08
7.39444e-06
-5.73995e-08
7.39865e-06
-5.40767e-08
7.40244e-06
-5.09161e-08
7.40586e-06
-4.79833e-08
7.40896e-06
-4.52945e-08
7.41178e-06
-4.28364e-08
7.41438e-06
-4.0605e-08
-3.8544e-08
7.41678e-06
6.37868e-06
-3.24716e-08
6.38977e-06
-6.3328e-08
6.39956e-06
-7.21989e-08
6.40892e-06
-7.6661e-08
6.41792e-06
-7.92255e-08
6.42626e-06
-7.91192e-08
6.43385e-06
-7.70177e-08
6.44072e-06
-7.38669e-08
6.4469e-06
-7.01981e-08
6.45242e-06
-6.62768e-08
6.45732e-06
-6.2286e-08
6.46164e-06
-5.83935e-08
6.46542e-06
-5.46888e-08
6.4687e-06
-5.1262e-08
6.47153e-06
-4.81231e-08
6.47397e-06
-4.52787e-08
6.47609e-06
-4.27211e-08
-4.03771e-08
6.47795e-06
5.5608e-06
-4.78042e-08
5.57675e-06
-7.92637e-08
5.59124e-06
-8.66819e-08
5.60509e-06
-9.0499e-08
5.6179e-06
-9.20379e-08
5.62924e-06
-9.0453e-08
5.63904e-06
-8.6812e-08
5.64731e-06
-8.21331e-08
5.65408e-06
-7.69652e-08
5.6594e-06
-7.15904e-08
5.66335e-06
-6.62272e-08
5.66601e-06
-6.1047e-08
5.66751e-06
-5.6186e-08
5.66801e-06
-5.17533e-08
5.66764e-06
-4.77565e-08
5.6666e-06
-4.42382e-08
5.66507e-06
-4.1176e-08
-3.87276e-08
5.66343e-06
4.87506e-06
-9.52549e-08
4.91188e-06
-1.16067e-07
4.93818e-06
-1.12973e-07
4.95568e-06
-1.07982e-07
4.96483e-06
-1.0119e-07
4.96688e-06
-9.25018e-08
4.96322e-06
-8.31421e-08
4.95501e-06
-7.39264e-08
4.94327e-06
-6.52145e-08
4.92882e-06
-5.7131e-08
4.9124e-06
-4.97885e-08
4.89459e-06
-4.3238e-08
4.87589e-06
-3.74825e-08
4.85665e-06
-3.25096e-08
4.83735e-06
-2.84509e-08
4.81843e-06
-2.53177e-08
4.8001e-06
-2.28325e-08
-2.12855e-08
4.78267e-06
4.10742e-06
3.99136e-06
3.87838e-06
3.7704e-06
3.66921e-06
3.57671e-06
3.49357e-06
3.41964e-06
3.35443e-06
3.2973e-06
3.24751e-06
3.20428e-06
3.1668e-06
3.13429e-06
3.10584e-06
3.08052e-06
3.05769e-06
3.03641e-06
-7.86672e-09
7.92821e-09
-2.09889e-08
1.32578e-08
-3.60137e-08
1.5116e-08
-4.96761e-08
1.37738e-08
-5.73332e-08
7.73495e-09
-5.30273e-08
-4.18621e-09
-3.40591e-08
-1.89209e-08
-1.98895e-09
-3.19378e-08
3.91523e-08
-4.1111e-08
8.52579e-08
-4.59937e-08
1.31795e-07
-4.65291e-08
1.75749e-07
-4.3861e-08
2.14791e-07
-3.90399e-08
2.47721e-07
-3.28485e-08
2.73574e-07
-2.58493e-08
2.92018e-07
-1.83707e-08
3.0262e-07
-1.05948e-08
3.05197e-07
-2.51561e-09
2.99467e-07
5.74459e-09
2.85692e-07
1.38263e-08
2.64423e-07
2.12874e-08
2.36731e-07
2.77438e-08
2.03963e-07
3.27921e-08
1.68017e-07
3.6011e-08
1.31055e-07
3.69961e-08
9.56364e-08
3.55055e-08
6.40739e-08
3.1605e-08
3.83723e-08
2.58108e-08
1.93868e-08
1.90443e-08
7.1705e-09
1.23369e-08
8.30975e-10
6.39569e-09
-1.30803e-10
1.07126e-09
4.30484e-09
-4.39447e-09
1.54275e-08
-1.10312e-08
3.48301e-08
-1.94014e-08
6.3012e-08
-2.81019e-08
9.62523e-08
-3.32519e-08
1.28892e-07
-3.25565e-08
1.55406e-07
-2.65284e-08
1.72604e-07
-1.71066e-08
1.78969e-07
-6.36296e-09
1.76023e-07
3.04417e-09
1.66921e-07
9.13698e-09
1.56075e-07
1.09476e-08
1.48123e-07
7.99912e-09
1.45245e-07
3.00259e-09
1.38632e-07
6.63847e-09
1.1929e-07
1.95015e-08
7.98018e-08
3.94955e-08
1.59692e-08
6.40595e-08
-7.12023e-08
8.71771e-08
-1.76951e-07
1.0595e-07
-2.98595e-07
1.21647e-07
-4.32762e-07
1.34319e-07
-5.73404e-07
1.40641e-07
-7.16416e-07
1.4313e-07
-8.59561e-07
1.43158e-07
-9.98073e-07
1.3861e-07
-1.1301e-06
1.32039e-07
-1.25473e-06
1.24709e-07
-1.36967e-06
1.14953e-07
-1.47513e-06
1.05524e-07
-1.57215e-06
9.70135e-08
-1.66075e-06
8.86628e-08
-1.74163e-06
8.0874e-08
-1.81542e-06
7.38365e-08
-1.88341e-06
6.79867e-08
-1.94608e-06
6.27171e-08
-2.00414e-06
5.80774e-08
-2.05812e-06
5.40103e-08
-2.10853e-06
5.04468e-08
-2.15581e-06
4.7311e-08
-2.20032e-06
4.45481e-08
-2.24237e-06
4.2088e-08
-2.28222e-06
3.9892e-08
-2.32009e-06
3.79152e-08
-2.35616e-06
3.61216e-08
-2.39058e-06
3.44817e-08
-2.42348e-06
3.29694e-08
-2.45497e-06
3.15636e-08
-2.48513e-06
3.02441e-08
-2.51405e-06
2.89949e-08
-2.54175e-06
2.78009e-08
-2.56831e-06
2.66485e-08
-2.59373e-06
2.55303e-08
-2.61806e-06
2.44331e-08
-2.64129e-06
2.33539e-08
-2.66344e-06
2.22748e-08
-2.68445e-06
2.11676e-08
-2.70426e-06
2.00616e-08
-2.72292e-06
1.88819e-08
-2.74034e-06
1.76744e-08
-2.75652e-06
1.63894e-08
-2.77133e-06
1.5052e-08
-2.78476e-06
1.36135e-08
-2.79664e-06
1.2101e-08
-2.80694e-06
1.0467e-08
-2.81547e-06
8.73621e-09
-2.82218e-06
6.8737e-09
-2.8269e-06
4.90873e-09
-2.8296e-06
2.87545e-09
-2.8303e-06
8.58881e-10
-2.82921e-06
-9.64665e-10
-2.82654e-06
-2.61319e-09
-2.82228e-06
-4.1956e-09
-2.81649e-06
-5.78728e-09
-2.80911e-06
-7.35141e-09
-2.80018e-06
-8.9246e-09
-2.78967e-06
-1.04664e-08
-2.77763e-06
-1.20014e-08
-2.76407e-06
-1.3501e-08
-2.74903e-06
-1.49756e-08
-2.73255e-06
-1.64131e-08
-2.71465e-06
-1.78097e-08
-2.69539e-06
-1.91701e-08
-2.67481e-06
-2.0475e-08
-2.65296e-06
-2.17391e-08
-2.62992e-06
-2.29376e-08
-2.60577e-06
-2.40936e-08
-2.58053e-06
-2.51797e-08
-2.55427e-06
-2.62148e-08
-2.52699e-06
-2.71694e-08
-2.49881e-06
-2.80923e-08
-2.46974e-06
-2.89405e-08
-2.43992e-06
-2.97822e-08
-2.40929e-06
-3.05554e-08
-2.37799e-06
-3.1324e-08
-2.34596e-06
-3.20283e-08
-2.31331e-06
-3.27322e-08
-2.27998e-06
-3.3389e-08
-2.24606e-06
-3.40393e-08
-2.21153e-06
-3.46429e-08
-2.17643e-06
-3.52435e-08
-2.14074e-06
-3.58198e-08
-2.10451e-06
-3.63822e-08
-2.06773e-06
-3.69167e-08
-2.03048e-06
-3.7391e-08
-1.9928e-06
-3.78016e-08
-1.95465e-06
-3.82226e-08
-1.91588e-06
-3.87941e-08
-1.87647e-06
-3.93975e-08
-1.83647e-06
-3.9958e-08
-1.79588e-06
-4.05446e-08
-1.75465e-06
-4.11518e-08
-1.71279e-06
-4.17758e-08
-1.67027e-06
-4.24166e-08
-1.62709e-06
-4.30732e-08
-1.58323e-06
-4.37448e-08
-1.53869e-06
-4.44296e-08
-1.49345e-06
-4.51261e-08
-1.4475e-06
-4.58322e-08
-1.40085e-06
-4.65426e-08
-1.35349e-06
-4.72584e-08
-1.30542e-06
-4.79666e-08
-1.25665e-06
-4.86711e-08
-1.20719e-06
-4.93599e-08
-1.15706e-06
-5.00402e-08
-1.10628e-06
-5.07028e-08
-1.05484e-06
-5.13588e-08
-1.00278e-06
-5.19986e-08
-9.50079e-07
-5.26331e-08
-8.96776e-07
-5.32558e-08
-8.42859e-07
-5.38691e-08
-7.88351e-07
-5.44777e-08
-7.3325e-07
-5.50704e-08
-6.77589e-07
-5.56471e-08
-6.21373e-07
-5.62018e-08
-5.64645e-07
-5.67279e-08
-5.07417e-07
-5.72249e-08
-4.49741e-07
-5.76852e-08
-3.91642e-07
-5.81055e-08
-3.33186e-07
-5.84689e-08
-2.74444e-07
-5.87514e-08
-2.15566e-07
-5.8891e-08
-1.56746e-07
-5.88347e-08
-9.83771e-08
-5.83832e-08
-4.10108e-08
-5.73714e-08
1.37694e-08
-5.47568e-08
6.52601e-08
-5.14594e-08
-2.66859e-08
9.19708e-08
-3.4576e-09
1.14972e-08
-8.82935e-09
1.88576e-08
-1.19612e-08
1.84166e-08
-6.61165e-09
8.65596e-09
1.23004e-08
-1.10428e-08
4.47093e-08
-3.64556e-08
8.743e-08
-6.15951e-08
1.36006e-07
-8.04379e-08
1.85495e-07
-9.05773e-08
2.32221e-07
-9.2658e-08
2.74228e-07
-8.85192e-08
3.10673e-07
-8.02511e-08
3.4121e-07
-6.95608e-08
3.66025e-07
-5.76129e-08
3.85327e-07
-4.51351e-08
3.99539e-07
-3.25366e-08
4.08995e-07
-2.00331e-08
4.14264e-07
-7.74505e-09
4.15686e-07
4.34007e-09
4.13235e-07
1.63124e-08
4.06432e-07
2.81095e-08
3.94737e-07
3.94706e-08
3.77613e-07
4.9938e-08
3.54812e-07
5.88535e-08
3.26423e-07
6.54119e-08
2.93208e-07
6.87734e-08
2.56579e-07
6.82707e-08
2.18814e-07
6.36535e-08
1.82692e-07
5.52187e-08
1.5143e-07
4.37017e-08
1.27928e-07
2.99641e-08
1.14567e-07
1.45568e-08
1.12258e-07
-2.02586e-09
1.20996e-07
-1.96685e-08
1.39192e-07
-3.75668e-08
1.61932e-07
-5.07609e-08
1.82429e-07
-5.37334e-08
1.96031e-07
-4.60743e-08
2.00854e-07
-3.13292e-08
1.97311e-07
-1.34597e-08
1.86282e-07
4.7069e-09
1.70082e-07
1.93823e-08
1.4937e-07
2.98897e-08
1.17716e-07
4.27631e-08
6.43437e-08
6.14074e-08
-1.9848e-08
8.73174e-08
-1.35256e-07
1.22073e-07
-2.73263e-07
1.57566e-07
-4.23794e-07
1.90048e-07
-5.79263e-07
2.19572e-07
-7.36201e-07
2.44141e-07
-8.92106e-07
2.61905e-07
-1.04338e-06
2.72954e-07
-1.18601e-06
2.76987e-07
-1.31886e-06
2.73524e-07
-1.43975e-06
2.6406e-07
-1.54735e-06
2.5079e-07
-1.64306e-06
2.34359e-07
-1.72759e-06
2.16593e-07
-1.80173e-06
1.98887e-07
-1.86806e-06
1.81314e-07
-1.92739e-06
1.64883e-07
-1.98063e-06
1.5027e-07
-2.02908e-06
1.37138e-07
-2.07366e-06
1.25472e-07
-2.115e-06
1.15197e-07
-2.15339e-06
1.06391e-07
-2.18938e-06
9.87343e-08
-2.22333e-06
9.20413e-08
-2.25547e-06
8.61723e-08
-2.28599e-06
8.09945e-08
-2.31505e-06
7.63941e-08
-2.34276e-06
7.22766e-08
-2.36921e-06
6.85638e-08
-2.39447e-06
6.51889e-08
-2.41862e-06
6.20966e-08
-2.4417e-06
5.92437e-08
-2.46377e-06
5.65907e-08
-2.48485e-06
5.41044e-08
-2.50499e-06
5.17571e-08
-2.52421e-06
4.95224e-08
-2.54253e-06
4.7378e-08
-2.55997e-06
4.53012e-08
-2.57652e-06
4.32733e-08
-2.5922e-06
4.12762e-08
-2.60698e-06
3.92962e-08
-2.62086e-06
3.73168e-08
-2.63382e-06
3.53088e-08
-2.64578e-06
3.32778e-08
-2.65674e-06
3.11677e-08
-2.66666e-06
2.89963e-08
-2.67555e-06
2.67405e-08
-2.68336e-06
2.43785e-08
-2.69007e-06
2.19241e-08
-2.69565e-06
1.93482e-08
-2.70008e-06
1.66732e-08
-2.70336e-06
1.38792e-08
-2.70549e-06
1.10024e-08
-2.70653e-06
8.03979e-09
-2.70652e-06
5.04017e-09
-2.70555e-06
2.01399e-09
-2.70356e-06
-1.01477e-09
-2.70039e-06
-4.07108e-09
-2.69579e-06
-7.16404e-09
-2.68971e-06
-1.02638e-08
-2.68211e-06
-1.33722e-08
-2.67299e-06
-1.64668e-08
-2.66235e-06
-1.9551e-08
-2.65019e-06
-2.25983e-08
-2.63655e-06
-2.56114e-08
-2.62145e-06
-2.85663e-08
-2.60491e-06
-3.14635e-08
-2.58698e-06
-3.42849e-08
-2.56771e-06
-3.70302e-08
-2.54712e-06
-3.96865e-08
-2.52528e-06
-4.2249e-08
-2.50222e-06
-4.47072e-08
-2.47804e-06
-4.70658e-08
-2.45278e-06
-4.93164e-08
-2.42648e-06
-5.14522e-08
-2.39918e-06
-5.34706e-08
-2.37092e-06
-5.53656e-08
-2.34176e-06
-5.7163e-08
-2.31177e-06
-5.88615e-08
-2.281e-06
-6.0496e-08
-2.24949e-06
-6.2045e-08
-2.21727e-06
-6.35394e-08
-2.18436e-06
-6.49545e-08
-2.1508e-06
-6.63256e-08
-2.11662e-06
-6.76317e-08
-2.08182e-06
-6.89023e-08
-2.04643e-06
-7.01187e-08
-2.01045e-06
-7.13125e-08
-1.97389e-06
-7.24706e-08
-1.93675e-06
-7.36099e-08
-1.89904e-06
-7.47173e-08
-1.86073e-06
-7.57929e-08
-1.82176e-06
-7.68304e-08
-1.78212e-06
-7.78918e-08
-1.7419e-06
-7.90086e-08
-1.7011e-06
-8.01767e-08
-1.65965e-06
-8.13538e-08
-1.61756e-06
-8.25846e-08
-1.57479e-06
-8.38408e-08
-1.53135e-06
-8.51455e-08
-1.4872e-06
-8.64651e-08
-1.44236e-06
-8.78271e-08
-1.39679e-06
-8.92032e-08
-1.35051e-06
-9.0615e-08
-1.30349e-06
-9.2036e-08
-1.25575e-06
-9.34837e-08
-1.20726e-06
-9.49303e-08
-1.15804e-06
-9.639e-08
-1.10808e-06
-9.78306e-08
-1.0574e-06
-9.9261e-08
-1.00602e-06
-1.00659e-07
-9.53954e-07
-1.02034e-07
-9.01215e-07
-1.03374e-07
-8.4782e-07
-1.04691e-07
-7.93787e-07
-1.05979e-07
-7.39129e-07
-1.07244e-07
-6.8386e-07
-1.08491e-07
-6.27988e-07
-1.09711e-07
-5.71533e-07
-1.10918e-07
-5.145e-07
-1.12092e-07
-4.56916e-07
-1.13235e-07
-3.98794e-07
-1.14329e-07
-3.40172e-07
-1.15373e-07
-2.81067e-07
-1.1635e-07
-2.21524e-07
-1.17265e-07
-1.61572e-07
-1.18092e-07
-1.01268e-07
-1.18821e-07
-4.06573e-08
-1.19406e-07
2.01751e-08
-1.1978e-07
8.10427e-08
-1.19754e-07
1.41583e-07
-1.18983e-07
2.01148e-07
-1.16985e-07
2.59097e-07
-1.12749e-07
3.11884e-07
-1.0428e-07
-7.75743e-08
3.62733e-07
5.86669e-10
1.10055e-08
4.77897e-09
1.48626e-08
1.69856e-08
6.35476e-09
4.53698e-08
-1.9604e-08
9.04461e-08
-5.60654e-08
1.45365e-07
-9.13123e-08
2.0032e-07
-1.1653e-07
2.49013e-07
-1.29085e-07
2.89041e-07
-1.30589e-07
3.20643e-07
-1.24218e-07
3.4511e-07
-1.1297e-07
3.63956e-07
-9.90581e-08
3.78319e-07
-8.39072e-08
3.89088e-07
-6.83453e-08
3.96794e-07
-5.28241e-08
4.01866e-07
-3.75754e-08
4.04564e-07
-2.27152e-08
4.05163e-07
-8.31492e-09
4.03911e-07
5.6066e-09
4.0117e-07
1.90783e-08
3.97177e-07
3.21148e-08
3.9199e-07
4.46825e-08
3.85309e-07
5.66334e-08
3.76568e-07
6.76236e-08
3.64926e-07
7.70735e-08
3.49584e-07
8.4151e-08
3.30042e-07
8.78424e-08
3.06622e-07
8.71231e-08
2.80647e-07
8.12366e-08
2.54511e-07
6.99046e-08
2.3106e-07
5.34701e-08
2.12898e-07
3.28039e-08
2.01563e-07
9.37091e-09
1.97029e-07
-1.50469e-08
1.95146e-07
-3.56405e-08
1.88945e-07
-4.44875e-08
1.75146e-07
-3.98984e-08
1.5386e-07
-2.47124e-08
1.25623e-07
-3.05289e-09
9.04542e-08
2.18118e-08
4.53845e-08
4.98296e-08
-1.55484e-08
8.04203e-08
-9.87409e-08
1.13134e-07
-2.06523e-07
1.50594e-07
-3.36969e-07
1.91876e-07
-4.83615e-07
2.33984e-07
-6.35509e-07
2.73976e-07
-7.86525e-07
3.08597e-07
-9.32325e-07
3.35857e-07
-1.06818e-06
3.55443e-07
-1.19119e-06
3.67161e-07
-1.30031e-06
3.7105e-07
-1.39499e-06
3.67653e-07
-1.4757e-06
3.57722e-07
-1.54451e-06
3.42357e-07
-1.6037e-06
3.23278e-07
-1.65512e-06
3.0223e-07
-1.70104e-06
2.80307e-07
-1.74305e-06
2.58622e-07
-1.78209e-06
2.37957e-07
-1.81938e-06
2.18632e-07
-1.85539e-06
2.0091e-07
-1.8901e-06
1.85005e-07
-1.92374e-06
1.70794e-07
-1.95644e-06
1.58189e-07
-1.98824e-06
1.47018e-07
-2.019e-06
1.3717e-07
-2.04872e-06
1.2847e-07
-2.07741e-06
1.2074e-07
-2.10506e-06
1.1384e-07
-2.13169e-06
1.07639e-07
-2.15732e-06
1.02034e-07
-2.18195e-06
9.69341e-08
-2.20563e-06
9.22614e-08
-2.22838e-06
8.79553e-08
-2.25022e-06
8.39638e-08
-2.27119e-06
8.0239e-08
-2.29131e-06
7.67436e-08
-2.31061e-06
7.3442e-08
-2.32912e-06
7.03031e-08
-2.34685e-06
6.72968e-08
-2.36383e-06
6.43954e-08
-2.38005e-06
6.15707e-08
-2.39553e-06
5.87976e-08
-2.41026e-06
5.60521e-08
-2.42422e-06
5.33099e-08
-2.4374e-06
5.05469e-08
-2.44977e-06
4.77461e-08
-2.46129e-06
4.48708e-08
-2.47191e-06
4.19173e-08
-2.48162e-06
3.88454e-08
-2.49041e-06
3.56396e-08
-2.49821e-06
3.23146e-08
-2.50503e-06
2.8833e-08
-2.51078e-06
2.52189e-08
-2.51547e-06
2.14474e-08
-2.51904e-06
1.75494e-08
-2.52148e-06
1.35189e-08
-2.52274e-06
9.38814e-09
-2.52278e-06
5.16598e-09
-2.52156e-06
8.656e-10
-2.51901e-06
-3.51054e-09
-2.51508e-06
-7.97612e-09
-2.50972e-06
-1.25035e-08
-2.50292e-06
-1.70769e-08
-2.49462e-06
-2.16564e-08
-2.48486e-06
-2.6234e-08
-2.47362e-06
-3.07793e-08
-2.46092e-06
-3.52821e-08
-2.44679e-06
-3.97186e-08
-2.43125e-06
-4.40753e-08
-2.41433e-06
-4.83355e-08
-2.39609e-06
-5.24847e-08
-2.37655e-06
-5.65133e-08
-2.35578e-06
-6.04062e-08
-2.33381e-06
-6.41568e-08
-2.3107e-06
-6.77556e-08
-2.28652e-06
-7.12051e-08
-2.26132e-06
-7.4495e-08
-2.23513e-06
-7.76196e-08
-2.20797e-06
-8.05702e-08
-2.17992e-06
-8.33561e-08
-2.15102e-06
-8.59882e-08
-2.12133e-06
-8.84967e-08
-2.09089e-06
-9.08882e-08
-2.05974e-06
-9.31781e-08
-2.0279e-06
-9.53673e-08
-1.99541e-06
-9.74673e-08
-1.96227e-06
-9.94845e-08
-1.92852e-06
-1.0143e-07
-1.89416e-06
-1.03313e-07
-1.85921e-06
-1.05142e-07
-1.82366e-06
-1.06932e-07
-1.78752e-06
-1.08689e-07
-1.75078e-06
-1.1042e-07
-1.71345e-06
-1.12128e-07
-1.67549e-06
-1.1381e-07
-1.6369e-06
-1.15473e-07
-1.59767e-06
-1.17151e-07
-1.55782e-06
-1.18875e-07
-1.51733e-06
-1.20652e-07
-1.47621e-06
-1.22485e-07
-1.4344e-06
-1.24378e-07
-1.39191e-06
-1.26328e-07
-1.34871e-06
-1.2833e-07
-1.30479e-06
-1.30372e-07
-1.26014e-06
-1.32453e-07
-1.21476e-06
-1.3457e-07
-1.16864e-06
-1.36718e-07
-1.12177e-06
-1.38891e-07
-1.07415e-06
-1.41084e-07
-1.02579e-06
-1.43286e-07
-9.76671e-07
-1.45489e-07
-9.26817e-07
-1.47674e-07
-8.76236e-07
-1.49825e-07
-8.24949e-07
-1.51936e-07
-7.72972e-07
-1.53996e-07
-7.20326e-07
-1.5601e-07
-6.67032e-07
-1.57972e-07
-6.13109e-07
-1.59893e-07
-5.58574e-07
-1.61768e-07
-5.03444e-07
-1.63611e-07
-4.47735e-07
-1.6541e-07
-3.91463e-07
-1.6718e-07
-3.34644e-07
-1.689e-07
-2.773e-07
-1.7057e-07
-2.19452e-07
-1.72165e-07
-1.61131e-07
-1.73682e-07
-1.02362e-07
-1.75104e-07
-4.31781e-08
-1.76434e-07
1.63957e-08
-1.77648e-07
7.63105e-08
-1.78715e-07
1.36485e-07
-1.79558e-07
1.96796e-07
-1.80064e-07
2.57061e-07
-1.79993e-07
3.17037e-07
-1.78931e-07
3.76327e-07
-1.76246e-07
4.3443e-07
-1.70819e-07
4.90387e-07
-1.60201e-07
-1.34749e-07
5.47596e-07
-3.93515e-10
1.14724e-08
1.12745e-08
3.33463e-09
4.49063e-08
-2.72067e-08
1.01459e-07
-7.60881e-08
1.66142e-07
-1.20728e-07
2.24375e-07
-1.49505e-07
2.69048e-07
-1.6119e-07
2.99907e-07
-1.59911e-07
3.19927e-07
-1.50596e-07
3.32695e-07
-1.36953e-07
3.40947e-07
-1.21208e-07
3.46468e-07
-1.04548e-07
3.50166e-07
-8.75887e-08
3.52505e-07
-7.06546e-08
3.53631e-07
-5.39329e-08
3.53628e-07
-3.75449e-08
3.5251e-07
-2.15825e-08
3.50345e-07
-6.12408e-09
3.47173e-07
8.78965e-09
3.43159e-07
2.31154e-08
3.3848e-07
3.68015e-08
3.33383e-07
4.98015e-08
3.27989e-07
6.20354e-08
3.22314e-07
7.33221e-08
3.16059e-07
8.33399e-08
3.08717e-07
9.15233e-08
2.9954e-07
9.70401e-08
2.8789e-07
9.88156e-08
2.73479e-07
9.56825e-08
2.56717e-07
8.67236e-08
2.38686e-07
7.15509e-08
2.20868e-07
5.07008e-08
2.0395e-07
2.63502e-08
1.84899e-07
4.08892e-09
1.57514e-07
-8.2089e-09
1.19873e-07
-6.77056e-09
7.34555e-08
6.55801e-09
1.8432e-08
3.03892e-08
-4.80275e-08
6.34501e-08
-1.29453e-07
1.03296e-07
-2.27341e-07
1.47752e-07
-3.41493e-07
1.94606e-07
-4.7001e-07
2.4167e-07
-6.07009e-07
2.87612e-07
-7.45863e-07
3.30738e-07
-8.80376e-07
3.68506e-07
-1.00478e-06
3.98382e-07
-1.11572e-06
4.19545e-07
-1.21209e-06
4.32228e-07
-1.2935e-06
4.36864e-07
-1.36068e-06
4.34342e-07
-1.4153e-06
4.25681e-07
-1.45958e-06
4.11942e-07
-1.49611e-06
3.94268e-07
-1.52758e-06
3.73841e-07
-1.55616e-06
3.51873e-07
-1.58334e-06
3.29419e-07
-1.61022e-06
3.0721e-07
-1.6374e-06
2.85817e-07
-1.66506e-06
2.65637e-07
-1.69328e-06
2.46873e-07
-1.72196e-06
2.29608e-07
-1.75083e-06
2.13892e-07
-1.77968e-06
1.99662e-07
-1.80832e-06
1.8684e-07
-1.83658e-06
1.75295e-07
-1.8643e-06
1.649e-07
-1.89135e-06
1.55529e-07
-1.91764e-06
1.47049e-07
-1.94314e-06
1.39343e-07
-1.96779e-06
1.32307e-07
-1.9916e-06
1.25851e-07
-2.01455e-06
1.19896e-07
-2.03665e-06
1.1438e-07
-2.05793e-06
1.09246e-07
-2.07839e-06
1.04445e-07
-2.09806e-06
9.99362e-08
-2.11698e-06
9.56811e-08
-2.13515e-06
9.16439e-08
-2.15261e-06
8.77911e-08
-2.16937e-06
8.40892e-08
-2.18545e-06
8.0505e-08
-2.20085e-06
7.70054e-08
-2.21558e-06
7.3558e-08
-2.22962e-06
7.01306e-08
-2.24297e-06
6.66937e-08
-2.2556e-06
6.3217e-08
-2.26748e-06
5.96688e-08
-2.27856e-06
5.60334e-08
-2.28881e-06
5.22415e-08
-2.2982e-06
4.83241e-08
-2.30668e-06
4.42203e-08
-2.31424e-06
3.99475e-08
-2.3208e-06
3.54745e-08
-2.32633e-06
3.08205e-08
-2.33078e-06
2.59633e-08
-2.3341e-06
2.09334e-08
-2.33625e-06
1.57225e-08
-2.33717e-06
1.03639e-08
-2.33681e-06
4.8609e-09
-2.33513e-06
-7.71445e-10
-2.3321e-06
-6.52244e-09
-2.32767e-06
-1.23891e-08
-2.32185e-06
-1.83318e-08
-2.3146e-06
-2.43341e-08
-2.30592e-06
-3.03455e-08
-2.2958e-06
-3.63544e-08
-2.28425e-06
-4.23169e-08
-2.2713e-06
-4.82223e-08
-2.25696e-06
-5.40342e-08
-2.24127e-06
-5.97395e-08
-2.22426e-06
-6.53113e-08
-2.20598e-06
-7.0735e-08
-2.18646e-06
-7.59933e-08
-2.16575e-06
-8.10701e-08
-2.1439e-06
-8.59556e-08
-2.12098e-06
-9.06448e-08
-2.09703e-06
-9.51347e-08
-2.07209e-06
-9.94127e-08
-2.04622e-06