/*--------------------------------*- C++ -*----------------------------------*\
  =========                 |
  \\      /  F ield         | OpenFOAM: The Open Source CFD Toolbox
   \\    /   O peration     | Website:  https://openfoam.org
    \\  /    A nd           | Version:  13
     \\/     M anipulation  |
\*---------------------------------------------------------------------------*/
FoamFile
{
    format      ascii;
    class       volVectorField;
    location    "1100";
    object      U;
}
// * * * * * * * * * * * * * * * * * * * * * * * * * * * * * * * * * * * * * //

dimensions      [0 1 -1 0 0 0 0];

internalField   nonuniform List<vector> 
12225
(
(9.75947 0.052526 0)
(9.27906 0.104281 0)
(8.80521 0.10935 0)
(8.36429 0.103149 0)
(7.97561 0.0852475 0)
(7.6337 0.0763434 0)
(7.34319 0.0676542 0)
(7.09958 0.0471878 0)
(6.89837 0.0307562 0)
(6.72936 0.032231 0)
(6.6083 0.0287805 0)
(6.52879 0.00575594 0)
(6.47241 -0.00395459 0)
(6.43493 -0.0110988 0)
(6.41211 -0.0185242 0)
(6.40065 -0.0144454 0)
(6.39977 -0.0156917 0)
(6.40956 -0.0108617 0)
(10.0958 0.0565068 0)
(10.2995 0.0918876 0)
(10.4181 0.0941131 0)
(10.4615 0.0924836 0)
(10.4527 0.0931117 0)
(10.4283 0.0902478 0)
(10.3618 0.0848352 0)
(10.2886 0.0797278 0)
(10.2078 0.0735998 0)
(10.1263 0.0629309 0)
(10.022 0.0523901 0)
(9.91861 0.0470544 0)
(9.82161 0.0404327 0)
(9.72622 0.0354708 0)
(9.63617 0.0316186 0)
(9.54965 0.0250894 0)
(9.46424 0.0181485 0)
(9.38817 0.0125329 0)
(10.0119 0.0448905 0)
(10.0657 0.0687505 0)
(10.1219 0.0722437 0)
(10.1702 0.0777316 0)
(10.216 0.081367 0)
(10.2594 0.0828041 0)
(10.2994 0.0821683 0)
(10.3328 0.07967 0)
(10.3579 0.0768589 0)
(10.3762 0.0732366 0)
(10.3881 0.0680618 0)
(10.3912 0.0618413 0)
(10.3873 0.0577299 0)
(10.3791 0.0539389 0)
(10.3659 0.0499734 0)
(10.349 0.0473119 0)
(10.3289 0.0435451 0)
(10.3056 0.0392628 0)
(10.0026 0.0303728 0)
(10.0373 0.0561542 0)
(10.0664 0.0655076 0)
(10.0881 0.0717187 0)
(10.1057 0.0748042 0)
(10.1227 0.0751266 0)
(10.1399 0.0728107 0)
(10.156 0.0683617 0)
(10.1705 0.0641109 0)
(10.1845 0.0603732 0)
(10.1976 0.05585 0)
(10.2089 0.050575 0)
(10.2184 0.0467128 0)
(10.2272 0.0439109 0)
(10.2354 0.0418116 0)
(10.2432 0.0401997 0)
(10.2499 0.0377217 0)
(10.2556 0.0357814 0)
(10.0043 0.024925 0)
(10.031 0.0529856 0)
(10.05 0.0644974 0)
(10.0699 0.0699618 0)
(10.0847 0.0725233 0)
(10.0983 0.0729452 0)
(10.1112 0.0712119 0)
(10.1221 0.0678334 0)
(10.1313 0.0643046 0)
(10.1396 0.0607736 0)
(10.147 0.0566396 0)
(10.1531 0.0520749 0)
(10.1581 0.0483719 0)
(10.1628 0.0453767 0)
(10.1674 0.0427509 0)
(10.1721 0.0403848 0)
(10.1767 0.0376023 0)
(10.181 0.0353141 0)
(10.0035 0.0198637 0)
(10.024 0.0466507 0)
(10.0408 0.0566052 0)
(10.0581 0.0615105 0)
(10.0721 0.0647184 0)
(10.0851 0.0659057 0)
(10.0975 0.0649497 0)
(10.1081 0.0624116 0)
(10.117 0.0593728 0)
(10.1248 0.0560311 0)
(10.1315 0.0522322 0)
(10.137 0.0482348 0)
(10.1415 0.0447444 0)
(10.1455 0.0417248 0)
(10.1492 0.039032 0)
(10.1529 0.0365734 0)
(10.1564 0.0339964 0)
(10.1595 0.0317494 0)
(10.0022 0.0153907 0)
(10.017 0.0418381 0)
(10.0353 0.0513324 0)
(10.0504 0.0567382 0)
(10.0633 0.060207 0)
(10.0754 0.0615899 0)
(10.0867 0.060854 0)
(10.0968 0.0586982 0)
(10.1053 0.0559423 0)
(10.1129 0.0528628 0)
(10.1195 0.0494536 0)
(10.125 0.0459451 0)
(10.1297 0.0427529 0)
(10.1339 0.0398954 0)
(10.1377 0.0372933 0)
(10.1414 0.0348754 0)
(10.1449 0.0324356 0)
(10.148 0.0301527 0)
(10.0017 0.0127232 0)
(10.0127 0.0362305 0)
(10.0305 0.047128 0)
(10.0445 0.0527398 0)
(10.0568 0.0559965 0)
(10.0682 0.0573735 0)
(10.0788 0.0568643 0)
(10.0883 0.0550694 0)
(10.0966 0.0526229 0)
(10.1039 0.0497985 0)
(10.1103 0.0466817 0)
(10.1158 0.0434861 0)
(10.1206 0.0404807 0)
(10.1249 0.0377058 0)
(10.1289 0.035132 0)
(10.1326 0.0327001 0)
(10.1361 0.0302883 0)
(10.1392 0.0279442 0)
(10.0014 0.0107516 0)
(10.0102 0.0309811 0)
(10.0254 0.0422323 0)
(10.0387 0.0480811 0)
(10.0506 0.0513932 0)
(10.0615 0.0529048 0)
(10.0718 0.0527267 0)
(10.081 0.0512931 0)
(10.0892 0.049158 0)
(10.0964 0.0465934 0)
(10.1027 0.043757 0)
(10.1082 0.0408374 0)
(10.1131 0.0380284 0)
(10.1175 0.0353839 0)
(10.1215 0.0328911 0)
(10.1252 0.0305031 0)
(10.1287 0.0281434 0)
(10.1319 0.0257998 0)
(10.0009 0.00908566 0)
(10.0081 0.0263475 0)
(10.0208 0.0374259 0)
(10.0332 0.0432959 0)
(10.0445 0.0466163 0)
(10.0551 0.0482417 0)
(10.065 0.0483204 0)
(10.0741 0.0472189 0)
(10.0821 0.0453871 0)
(10.0892 0.0431051 0)
(10.0955 0.0405534 0)
(10.1011 0.037907 0)
(10.1061 0.0353103 0)
(10.1105 0.0328189 0)
(10.1146 0.0304276 0)
(10.1184 0.028113 0)
(10.1219 0.0258179 0)
(10.125 0.0235129 0)
(10.0006 0.00758617 0)
(10.0065 0.0222597 0)
(10.0171 0.0327958 0)
(10.0283 0.0385696 0)
(10.039 0.0418665 0)
(10.049 0.0435156 0)
(10.0585 0.0437549 0)
(10.0672 0.0429107 0)
(10.0751 0.0413571 0)
(10.0822 0.0393556 0)
(10.0885 0.0370844 0)
(10.0941 0.0346981 0)
(10.0991 0.0323159 0)
(10.1037 0.0299852 0)
(10.1078 0.0277188 0)
(10.1116 0.0255015 0)
(10.1151 0.0232965 0)
(10.1183 0.0210742 0)
(10.0005 0.00640162 0)
(10.0054 0.0188734 0)
(10.0144 0.0286347 0)
(10.0245 0.034193 0)
(10.0344 0.0374078 0)
(10.0438 0.0390657 0)
(10.0528 0.0394336 0)
(10.0612 0.0387966 0)
(10.0689 0.0374792 0)
(10.0758 0.0357201 0)
(10.0821 0.03369 0)
(10.0877 0.031531 0)
(10.0928 0.0293335 0)
(10.0974 0.0271599 0)
(10.1016 0.0250131 0)
(10.1055 0.0229048 0)
(10.109 0.0207979 0)
(10.1122 0.0186836 0)
(10.0004 0.00535073 0)
(10.0045 0.0158771 0)
(10.0121 0.0246847 0)
(10.0212 0.0298813 0)
(10.0303 0.0329661 0)
(10.0391 0.0345977 0)
(10.0476 0.0350498 0)
(10.0556 0.0345787 0)
(10.063 0.033462 0)
(10.0698 0.0319188 0)
(10.0759 0.0301121 0)
(10.0815 0.0281615 0)
(10.0866 0.0261502 0)
(10.0912 0.0241356 0)
(10.0954 0.0221304 0)
(10.0993 0.0201467 0)
(10.1028 0.0181684 0)
(10.106 0.0161762 0)
(10.0003 0.00433344 0)
(10.0037 0.0129183 0)
(10.0101 0.0205146 0)
(10.0181 0.0251658 0)
(10.0263 0.0279964 0)
(10.0345 0.029525 0)
(10.0424 0.0300156 0)
(10.0499 0.0296799 0)
(10.0569 0.0287541 0)
(10.0634 0.0274264 0)
(10.0694 0.0258495 0)
(10.0748 0.0241113 0)
(10.0798 0.0223072 0)
(10.0844 0.0204627 0)
(10.0886 0.0186251 0)
(10.0924 0.0167855 0)
(10.096 0.0149592 0)
(10.0992 0.0131173 0)
(10.0003 0.00333115 0)
(10.003 0.00998911 0)
(10.0083 0.0161864 0)
(10.0152 0.0201035 0)
(10.0226 0.022536 0)
(10.03 0.0238639 0)
(10.0373 0.0243129 0)
(10.0443 0.0240623 0)
(10.0509 0.0232932 0)
(10.0571 0.0221704 0)
(10.0628 0.0208043 0)
(10.0681 0.019294 0)
(10.0729 0.0176889 0)
(10.0774 0.0160495 0)
(10.0815 0.0143851 0)
(10.0853 0.0127311 0)
(10.0888 0.0110671 0)
(10.0919 0.00941524 0)
(10.0002 0.00234203 0)
(10.0025 0.00706785 0)
(10.0068 0.0117232 0)
(10.0127 0.0147188 0)
(10.0192 0.0165981 0)
(10.0259 0.017611 0)
(10.0326 0.0179272 0)
(10.039 0.0176906 0)
(10.0452 0.0170315 0)
(10.0511 0.0160761 0)
(10.0565 0.0149099 0)
(10.0616 0.0136109 0)
(10.0663 0.012222 0)
(10.0706 0.0107921 0)
(10.0746 0.00933628 0)
(10.0784 0.00788108 0)
(10.0818 0.00642217 0)
(10.0849 0.00497047 0)
(10.0002 0.0013568 0)
(10.002 0.00413226 0)
(10.0057 0.00712441 0)
(10.0108 0.00901356 0)
(10.0165 0.0101732 0)
(10.0225 0.0107335 0)
(10.0286 0.0108134 0)
(10.0346 0.0104992 0)
(10.0404 0.0098887 0)
(10.0459 0.00905113 0)
(10.0511 0.00806312 0)
(10.0559 0.00695849 0)
(10.0604 0.0057953 0)
(10.0647 0.00458268 0)
(10.0686 0.00336083 0)
(10.0722 0.00212587 0)
(10.0755 0.000901392 0)
(10.0785 -0.000322108 0)
(10.0002 0.000341236 0)
(10.0018 0.0010969 0)
(10.005 0.00229457 0)
(10.0095 0.00289419 0)
(10.0146 0.00315004 0)
(10.0201 0.00310813 0)
(10.0258 0.0028211 0)
(10.0314 0.00233078 0)
(10.0368 0.00168412 0)
(10.042 0.0009171 0)
(10.047 6.45281e-05 0)
(10.0517 -0.000848535 0)
(10.0561 -0.00179838 0)
(10.0602 -0.0027703 0)
(10.064 -0.00375 0)
(10.0675 -0.00472841 0)
(10.0707 -0.00570106 0)
(10.0737 -0.00665761 0)
(10.0002 -0.000789169 0)
(10.0017 -0.00225319 0)
(10.0047 -0.00304307 0)
(10.009 -0.00392292 0)
(10.014 -0.0047381 0)
(10.0193 -0.00552544 0)
(10.0247 -0.00629074 0)
(10.0301 -0.00704905 0)
(10.0354 -0.0077941 0)
(10.0405 -0.00853873 0)
(10.0454 -0.00927596 0)
(10.0499 -0.0100136 0)
(10.0542 -0.0107431 0)
(10.0582 -0.0114697 0)
(10.062 -0.0121854 0)
(10.0655 -0.0128931 0)
(10.0687 -0.0135888 0)
(10.0716 -0.0142668 0)
(10.0002 -0.00191159 0)
(10.0019 -0.00553581 0)
(10.0053 -0.00822166 0)
(10.01 -0.0104882 0)
(10.0152 -0.0122991 0)
(10.0207 -0.0137682 0)
(10.0263 -0.0149759 0)
(10.0319 -0.015965 0)
(10.0373 -0.0167964 0)
(10.0425 -0.0175006 0)
(10.0474 -0.0181271 0)
(10.052 -0.0186856 0)
(10.0563 -0.0192091 0)
(10.0603 -0.0196955 0)
(10.0641 -0.0201685 0)
(10.0675 -0.0206198 0)
(10.0707 -0.0210672 0)
(10.0737 -0.0214913 0)
(10.0002 -0.00298165 0)
(10.0024 -0.00859886 0)
(10.0064 -0.012888 0)
(10.0117 -0.0162398 0)
(10.0175 -0.0187867 0)
(10.0235 -0.020744 0)
(10.0295 -0.0222391 0)
(10.0353 -0.0233513 0)
(10.041 -0.0241823 0)
(10.0464 -0.0248032 0)
(10.0514 -0.0252878 0)
(10.0561 -0.0256676 0)
(10.0605 -0.0259888 0)
(10.0646 -0.0262627 0)
(10.0683 -0.0265198 0)
(10.0718 -0.0267585 0)
(10.0751 -0.0269978 0)
(10.078 -0.0272206 0)
(10.0003 -0.0041771 0)
(10.0031 -0.0119114 0)
(10.0081 -0.0176779 0)
(10.0144 -0.0219154 0)
(10.021 -0.0250243 0)
(10.0276 -0.0273424 0)
(10.0341 -0.0290097 0)
(10.0404 -0.0301573 0)
(10.0464 -0.0309149 0)
(10.052 -0.0314093 0)
(10.0572 -0.0317122 0)
(10.0621 -0.0318964 0)
(10.0666 -0.0319958 0)
(10.0708 -0.0320613 0)
(10.0746 -0.0321006 0)
(10.0781 -0.0321464 0)
(10.0814 -0.0321907 0)
(10.0844 -0.0322423 0)
(10.0005 -0.00560268 0)
(10.0042 -0.0156602 0)
(10.0107 -0.0227242 0)
(10.0182 -0.0276149 0)
(10.0257 -0.0311399 0)
(10.033 -0.0336986 0)
(10.0401 -0.0354302 0)
(10.0469 -0.0365082 0)
(10.0534 -0.0371327 0)
(10.0593 -0.0374452 0)
(10.0648 -0.0375436 0)
(10.0698 -0.0375015 0)
(10.0745 -0.0373784 0)
(10.0787 -0.0372192 0)
(10.0826 -0.0370543 0)
(10.0862 -0.0369005 0)
(10.0895 -0.0367698 0)
(10.0925 -0.0366485 0)
(10.0007 -0.00739847 0)
(10.006 -0.0200004 0)
(10.0144 -0.028059 0)
(10.0233 -0.0333247 0)
(10.0317 -0.0371396 0)
(10.0398 -0.0398538 0)
(10.0477 -0.0415581 0)
(10.0552 -0.042489 0)
(10.062 -0.0429097 0)
(10.0683 -0.042988 0)
(10.0741 -0.042835 0)
(10.0794 -0.0425374 0)
(10.0841 -0.0421728 0)
(10.0885 -0.0417923 0)
(10.0925 -0.0414302 0)
(10.0961 -0.041097 0)
(10.0995 -0.0408176 0)
(10.1025 -0.0405651 0)
(10.0011 -0.00973537 0)
(10.0088 -0.0250146 0)
(10.0195 -0.0337188 0)
(10.03 -0.0390953 0)
(10.0394 -0.043059 0)
(10.0485 -0.045817 0)
(10.0573 -0.0474144 0)
(10.0655 -0.0481538 0)
(10.0729 -0.0483337 0)
(10.0797 -0.0481372 0)
(10.0858 -0.0476869 0)
(10.0913 -0.047089 0)
(10.0963 -0.0464383 0)
(10.1008 -0.0458064 0)
(10.1049 -0.0452269 0)
(10.1087 -0.0447223 0)
(10.1121 -0.0442945 0)
(10.1153 -0.0439099 0)
(10.0018 -0.0128959 0)
(10.0131 -0.0305421 0)
(10.0268 -0.039627 0)
(10.0392 -0.0451063 0)
(10.05 -0.0490971 0)
(10.0605 -0.0516637 0)
(10.0706 -0.0529645 0)
(10.0798 -0.0534208 0)
(10.0881 -0.0533488 0)
(10.0956 -0.0529143 0)
(10.1023 -0.0522366 0)
(10.1084 -0.0514294 0)
(10.1139 -0.0505892 0)
(10.1188 -0.0497894 0)
(10.1232 -0.0490562 0)
(10.1273 -0.0484053 0)
(10.131 -0.0478637 0)
(10.1343 -0.0473743 0)
(10.003 -0.0177586 0)
(10.0204 -0.0365453 0)
(10.0388 -0.0451506 0)
(10.0544 -0.0509131 0)
(10.0682 -0.0552385 0)
(10.0816 -0.0576538 0)
(10.0943 -0.0585393 0)
(10.1057 -0.0585188 0)
(10.116 -0.0579599 0)
(10.1251 -0.0570568 0)
(10.1333 -0.0559296 0)
(10.1405 -0.0547223 0)
(10.1469 -0.0535355 0)
(10.1524 -0.0524532 0)
(10.1572 -0.0514877 0)
(10.1613 -0.0506436 0)
(10.1649 -0.0499541 0)
(10.1679 -0.0493346 0)
(10.0081 -0.0271412 0)
(10.0397 -0.0466034 0)
(10.0707 -0.0521037 0)
(10.0961 -0.0571549 0)
(10.1193 -0.0620228 0)
(10.141 -0.0650394 0)
(10.1604 -0.0663267 0)
(10.1768 -0.0665144 0)
(10.1903 -0.0659759 0)
(10.2012 -0.0648854 0)
(10.2096 -0.0634268 0)
(10.2155 -0.0617676 0)
(10.2192 -0.0600453 0)
(10.2209 -0.0583874 0)
(10.221 -0.0568951 0)
(10.2197 -0.0556109 0)
(10.2173 -0.0545063 0)
(10.2141 -0.0536816 0)
(10.0388 -0.0357245 0)
(10.1389 -0.0623661 0)
(10.2092 -0.0675484 0)
(10.2527 -0.0692246 0)
(10.2781 -0.0704751 0)
(10.2893 -0.0703409 0)
(10.2874 -0.0689796 0)
(10.2748 -0.0669183 0)
(10.2536 -0.0644552 0)
(10.2261 -0.061726 0)
(10.1938 -0.0588273 0)
(10.1582 -0.0558635 0)
(10.1201 -0.0529525 0)
(10.0807 -0.050235 0)
(10.0404 -0.0477623 0)
(10.0008 -0.0456648 0)
(9.96204 -0.0439524 0)
(9.92491 -0.0430066 0)
(9.8861 -0.0408835 0)
(9.63278 -0.0746401 0)
(9.36891 -0.0850661 0)
(9.1012 -0.0866422 0)
(8.84797 -0.0838933 0)
(8.61678 -0.0784022 0)
(8.40813 -0.0715561 0)
(8.22133 -0.0641734 0)
(8.05584 -0.0568186 0)
(7.91041 -0.0497484 0)
(7.78356 -0.0431464 0)
(7.67318 -0.0370883 0)
(7.57752 -0.0316071 0)
(7.49451 -0.0266868 0)
(7.42264 -0.0225326 0)
(7.35904 -0.0192955 0)
(7.30185 -0.0167409 0)
(7.25083 -0.0151095 0)
(-0.0025695 0.00729179 -7.80795e-19)
(-0.0119999 0.0121529 8.98737e-19)
(-0.0250244 0.0137595 -6.18808e-19)
(-0.0395374 0.0124185 -1.87975e-19)
(-0.0512166 0.00737494 2.87372e-19)
(-0.0530661 -0.00134094 -7.1819e-20)
(-0.0402915 -0.0130679 -7.01545e-20)
(-0.0158527 -0.0259694 3.77901e-19)
(0.0170311 -0.0362834 -2.03169e-19)
(0.0550087 -0.0417821 4.85395e-20)
(0.0960692 -0.0429309 1.52798e-20)
(0.136878 -0.0407531 -1.62179e-19)
(0.174491 -0.036223 2.23682e-19)
(0.207082 -0.0301149 2.26881e-19)
(0.233665 -0.0230101 1.94323e-20)
(0.25374 -0.0152891 8.18068e-20)
(0.266943 -0.00719165 3.22272e-20)
(0.273404 0.00131168 5.63006e-20)
(0.272202 0.0101154 8.38804e-20)
(0.26336 0.0187267 9.12181e-21)
(0.247572 0.0263565 -3.13227e-20)
(0.225543 0.0321711 2.69155e-19)
(0.198236 0.0354155 -3.64669e-20)
(0.167045 0.0354957 3.23282e-19)
(0.133832 0.0320747 -7.5563e-20)
(0.100821 0.0253109 3.3433e-19)
(0.0703724 0.0161354 2.01416e-19)
(0.0444767 0.00640824 1.60353e-19)
(0.024339 -0.00148507 -7.83119e-19)
(0.0103921 -0.00596068 -1.711e-19)
(0.00221525 -0.00741985 -1.31569e-18)
(-0.00144986 -0.0076512 8.46939e-19)
(0.000698192 -0.00833749 5.68228e-19)
(0.00780126 -0.010679 -5.89832e-19)
(0.0216549 -0.015026 -6.76974e-19)
(0.04339 -0.0208712 -3.30457e-20)
(0.071256 -0.0255175 1.4035e-19)
(0.101515 -0.0267088 2.75618e-19)
(0.12905 -0.0233964 1.64788e-19)
(0.149828 -0.0165433 3.48673e-19)
(0.161383 -0.00793482 1.33215e-19)
(0.163329 0.000284817 3.50183e-20)
(0.157226 0.00596797 -4.73e-19)
(0.146999 0.00812685 -1.0116e-19)
(0.137502 0.00602077 2.17702e-19)
(0.132616 -0.000899603 1.1566e-20)
(0.129118 -0.0118318 5.44078e-19)
(0.119264 -0.0217084 1.80363e-19)
(0.0954959 -0.0203733 7.91624e-20)
(0.0524809 -0.00366968 -7.75529e-19)
(-0.0168353 0.0182306 5.23824e-19)
(-0.110756 0.0398071 2.84519e-20)
(-0.214746 0.0632208 2.67338e-19)
(-0.330735 0.0845636 1.63206e-19)
(-0.457612 0.0930185 5.30948e-20)
(-0.590992 0.0993477 1.04676e-19)
(-0.721176 0.106657 1.23921e-19)
(-0.851079 0.106195 -1.2262e-19)
(-0.976187 0.104078 4.50132e-20)
(-1.09375 0.101326 4.82186e-20)
(-1.20422 0.0917852 -1.11161e-19)
(-1.30649 0.0833324 -7.00374e-20)
(-1.39975 0.0770031 5.3002e-20)
(-1.4858 0.0698824 6.21862e-20)
(-1.56444 0.0625602 1.72461e-20)
(-1.63647 0.0557486 -6.54599e-20)
(-1.70271 0.0509608 7.13048e-21)
(-1.76389 0.0466069 3.35076e-21)
(-1.8207 0.0427968 1.66242e-20)
(-1.87357 0.0394963 8.07886e-20)
(-1.92305 0.0366549 -4.00403e-21)
(-1.96953 0.0341882 -5.78717e-20)
(-2.01338 0.0320613 6.20683e-20)
(-2.05491 0.0302022 2.25184e-20)
(-2.09437 0.0285823 -3.62713e-20)
(-2.13198 0.0271556 3.00097e-20)
(-2.16792 0.0258931 -4.59744e-21)
(-2.20233 0.024766 5.73408e-20)
(-2.23536 0.0237512 2.62932e-20)
(-2.2671 0.0228292 -3.86511e-20)
(-2.29764 0.0219807 -1.09911e-20)
(-2.32704 0.021191 2.16528e-21)
(-2.35538 0.0204425 4.28362e-20)
(-2.38268 0.0197233 5.29662e-20)
(-2.40899 0.0190194 4.64516e-20)
(-2.43432 0.0183199 -4.69822e-20)
(-2.45869 0.0176141 9.96379e-20)
(-2.4821 0.016888 -3.94528e-21)
(-2.50453 0.0161222 7.10651e-20)
(-2.52592 0.0153267 -1.00486e-19)
(-2.54627 0.0144586 -5.38257e-20)
(-2.56555 0.0135451 4.52115e-20)
(-2.58372 0.012556 6.57194e-20)
(-2.60072 0.0115082 -9.97072e-21)
(-2.61647 0.0103792 -6.18029e-20)
(-2.63089 0.00919459 -6.14313e-20)
(-2.64389 0.00794256 6.31028e-20)
(-2.65535 0.00665938 -3.40558e-20)
(-2.66517 0.00535059 -8.14066e-20)
(-2.67322 0.00405373 -3.55603e-20)
(-2.67938 0.00279021 8.80047e-20)
(-2.68366 0.00158615 4.434e-20)
(-2.68602 0.000498761 6.64747e-20)
(-2.68696 -0.000494708 -4.07646e-20)
(-2.68641 -0.001443 1.30211e-20)
(-2.68439 -0.00238622 4.53464e-21)
(-2.6809 -0.00330594 -8.33116e-21)
(-2.67592 -0.00422197 -1.80781e-20)
(-2.66946 -0.00510996 -2.7174e-20)
(-2.66152 -0.00598343 -4.42174e-20)
(-2.65213 -0.00682388 -6.05455e-20)
(-2.64129 -0.00763798 3.2007e-20)
(-2.62905 -0.00841574 -4.45719e-20)
(-2.61544 -0.00915653 -4.34601e-20)
(-2.60048 -0.0098587 7.62781e-20)
(-2.58422 -0.0105139 -4.48472e-21)
(-2.56671 -0.0111273 -4.84151e-20)
(-2.548 -0.0116892 -5.01397e-20)
(-2.52815 -0.0122116 4.59432e-20)
(-2.50721 -0.0126828 3.40907e-21)
(-2.48522 -0.0131131 1.35663e-20)
(-2.46221 -0.0134889 -8.79581e-21)
(-2.43825 -0.0138321 -2.54307e-20)
(-2.41338 -0.0141235 2.12498e-20)
(-2.38768 -0.0143942 -1.85144e-20)
(-2.36119 -0.0146164 1.64965e-20)
(-2.33393 -0.0148222 2.19765e-20)
(-2.30594 -0.0149868 -7.65343e-21)
(-2.27725 -0.0151492 2.07398e-20)
(-2.24787 -0.0152938 -1.77578e-20)
(-2.21781 -0.0154259 4.14041e-20)
(-2.18711 -0.0155152 -3.44759e-21)
(-2.15577 -0.0155953 -3.96216e-20)
(-2.12381 -0.0156519 8.71375e-21)
(-2.09122 -0.0156851 -1.87504e-21)
(-2.05803 -0.0156534 8.01561e-21)
(-2.02426 -0.0154855 7.08505e-21)
(-1.98999 -0.0151119 -2.28217e-21)
(-1.95522 -0.014742 9.85186e-22)
(-1.91981 -0.0147323 -6.71978e-22)
(-1.88368 -0.0148803 1.95282e-20)
(-1.84687 -0.0149705 2.2256e-20)
(-1.8094 -0.015094 -1.39943e-20)
(-1.7712 -0.0152377 -1.68151e-20)
(-1.7323 -0.0153984 -3.25926e-20)
(-1.69264 -0.0155863 -5.05005e-20)
(-1.65223 -0.0157937 -4.00137e-20)
(-1.61105 -0.0160232 -6.74652e-20)
(-1.56907 -0.0162737 3.45189e-20)
(-1.52629 -0.016545 3.30806e-20)
(-1.48268 -0.0168365 5.85757e-20)
(-1.43825 -0.0171456 4.4535e-20)
(-1.39296 -0.0174734 1.29208e-19)
(-1.34684 -0.0178141 8.91512e-21)
(-1.29986 -0.0181725 5.81737e-21)
(-1.25206 -0.0185408 -1.03131e-19)
(-1.20341 -0.0189262 1.65876e-19)
(-1.15395 -0.0193212 -1.00122e-19)
(-1.10366 -0.0197356 1.41307e-20)
(-1.05258 -0.0201608 5.18722e-20)
(-1.00067 -0.0206062 1.91953e-20)
(-0.947986 -0.0210636 4.95558e-20)
(-0.894486 -0.0215403 2.37687e-19)
(-0.8402 -0.0220374 1.18642e-19)
(-0.785118 -0.0225488 5.67039e-20)
(-0.729254 -0.0230776 8.12642e-20)
(-0.67262 -0.0236209 2.32161e-19)
(-0.615238 -0.0241783 -1.02802e-20)
(-0.557127 -0.0247497 2.73968e-19)
(-0.498315 -0.0253346 4.00125e-19)
(-0.43883 -0.025933 3.94109e-19)
(-0.378715 -0.0265408 -1.45322e-20)
(-0.318034 -0.0271497 3.81235e-20)
(-0.256889 -0.0277482 -9.14051e-20)
(-0.195438 -0.028309 -1.16318e-18)
(-0.133967 -0.0286979 5.84868e-19)
(-0.0729464 -0.0287191 4.38167e-19)
(-0.0149205 -0.0277464 -8.8271e-19)
(0.0492493 -0.0249441 -8.26644e-19)
(0.0700877 -0.0127064 1.20619e-18)
(-0.000111362 0.0198869 2.18395e-18)
(-0.00519042 0.0330564 -1.69035e-18)
(-0.0112911 0.0358231 -7.06675e-19)
(-0.0129462 0.0283258 1.95133e-18)
(-0.00190074 0.00951457 4.63146e-19)
(0.0238872 -0.022381 2.13375e-19)
(0.0585049 -0.061317 -1.29629e-19)
(0.099731 -0.09544 -4.67325e-19)
(0.14361 -0.11806 -2.59351e-20)
(0.186677 -0.127826 -3.2675e-19)
(0.22636 -0.126676 1.72601e-20)
(0.261427 -0.117747 -4.44924e-21)
(0.291404 -0.103903 9.92379e-20)
(0.316212 -0.0872835 1.4168e-20)
(0.336015 -0.0693278 -3.09069e-20)
(0.35109 -0.0508912 -2.59181e-19)
(0.361797 -0.0324409 -5.60465e-20)
(0.368335 -0.0141866 2.46641e-19)
(0.371546 0.00384939 -2.87431e-19)
(0.371449 0.0215343 8.05972e-20)
(0.367675 0.0385133 7.35786e-21)
(0.359724 0.0542444 1.61966e-19)
(0.347079 0.0679592 1.92615e-19)
(0.329338 0.0786647 1.70247e-19)
(0.306395 0.0852521 2.32679e-19)
(0.278608 0.0867023 -1.41628e-19)
(0.246992 0.0824218 3.87906e-20)
(0.213218 0.0726101 5.48809e-20)
(0.179517 0.0583895 -2.42481e-19)
(0.148588 0.0415305 -1.99309e-19)
(0.123335 0.0237089 -3.8397e-19)
(0.10657 0.00563224 -1.39762e-19)
(0.0994595 -0.0125189 -1.10884e-18)
(0.102981 -0.0303162 4.14165e-19)
(0.116031 -0.0487265 -5.05865e-19)
(0.135567 -0.0656933 4.94855e-19)
(0.156036 -0.0742198 -3.95501e-19)
(0.172029 -0.070099 9.68785e-20)
(0.180683 -0.0557043 2.32491e-19)
(0.181513 -0.035787 -1.85342e-19)
(0.174862 -0.0151323 1.67961e-19)
(0.16285 0.00111926 -7.51492e-20)
(0.14674 0.011152 -3.25264e-19)
(0.124835 0.0148361 -1.08655e-18)
(0.0896842 0.0152346 -9.0676e-19)
(0.0302926 0.0223284 1.24369e-20)
(-0.0645202 0.0542077 -9.89416e-19)
(-0.184972 0.0981952 -1.67517e-19)
(-0.317053 0.142204 4.11806e-19)
(-0.45475 0.183292 4.7499e-19)
(-0.597666 0.217373 9.09624e-20)
(-0.74158 0.242737 -3.33461e-20)
(-0.882623 0.260092 -3.05091e-20)
(-1.01817 0.269541 -8.95606e-20)
(-1.14606 0.271093 -6.41488e-20)
(-1.26243 0.265125 -1.57842e-19)
(-1.36757 0.253898 -1.76902e-19)
(-1.46138 0.23856 -3.84539e-20)
(-1.54421 0.220936 2.46864e-20)
(-1.61741 0.202885 -1.2186e-19)
(-1.68293 0.184832 9.19606e-20)
(-1.74099 0.167586 -3.90775e-20)
(-1.79362 0.151954 -1.54355e-19)
(-1.84126 0.137802 1.18194e-20)
(-1.88533 0.12524 1.10725e-19)
(-1.92595 0.114193 -4.24591e-20)
(-1.96388 0.104624 4.67704e-21)
(-1.9995 0.0962683 -9.75544e-20)
(-2.03314 0.0889867 3.35128e-20)
(-2.06509 0.0826296 -5.69121e-20)
(-2.09553 0.0770559 1.01334e-21)
(-2.12461 0.072143 -7.00537e-20)
(-2.15246 0.0677859 2.31045e-21)
(-2.17916 0.0638925 -4.12367e-20)
(-2.20479 0.0603902 5.44376e-20)
(-2.22941 0.057217 -9.36446e-20)
(-2.25308 0.0543213 1.21475e-20)
(-2.27583 0.0516605 -9.38787e-20)
(-2.29771 0.0491974 3.69149e-21)
(-2.31875 0.0469036 7.35178e-20)
(-2.33898 0.0447508 1.43677e-20)
(-2.35841 0.0427184 -4.27876e-20)
(-2.37706 0.0407841 -6.37692e-20)
(-2.39494 0.038931 3.63946e-20)
(-2.41204 0.0371432 1.02296e-19)
(-2.42837 0.0354072 -3.22591e-20)
(-2.44391 0.0337093 -1.157e-21)
(-2.45864 0.0320256 -2.70634e-21)
(-2.47251 0.030345 6.48396e-20)
(-2.48548 0.0286485 2.27624e-19)
(-2.49753 0.0269157 4.95905e-20)
(-2.50865 0.0251515 9.2879e-20)
(-2.51882 0.0233237 -2.01857e-19)
(-2.52801 0.0214495 -9.72062e-20)
(-2.53617 0.0194911 6.34606e-20)
(-2.54329 0.0174728 1.29382e-19)
(-2.54935 0.0153642 -7.13755e-20)
(-2.55435 0.0131991 -2.9086e-20)
(-2.55831 0.010966 -5.03114e-20)
(-2.56128 0.00871139 7.35018e-20)
(-2.56333 0.00645811 -1.02549e-19)
(-2.56448 0.00425404 -7.74168e-20)
(-2.56473 0.00214673 -5.01165e-20)
(-2.56364 0.000115442 1.66196e-19)
(-2.56118 -0.00186872 -1.88185e-20)
(-2.55731 -0.00383568 1.17985e-20)
(-2.55199 -0.0057605 6.16358e-20)
(-2.54524 -0.00766016 1.33069e-19)
(-2.53704 -0.00950708 -1.82122e-20)
(-2.52741 -0.0113139 -5.12155e-20)
(-2.51636 -0.0130584 4.0118e-21)
(-2.50392 -0.0147475 -9.44579e-20)
(-2.49013 -0.0163682 1.02169e-19)
(-2.475 -0.0179219 3.81242e-20)
(-2.45859 -0.0194038 2.99832e-20)
(-2.44093 -0.0208072 7.38437e-20)
(-2.42206 -0.0221319 8.80388e-20)
(-2.40205 -0.0233745 -4.57134e-20)
(-2.38095 -0.0245392 2.94062e-20)
(-2.35879 -0.0256168 4.19671e-20)
(-2.33561 -0.0266132 5.0078e-20)
(-2.31145 -0.0275183 -5.67742e-21)
(-2.28635 -0.0283602 -2.18622e-21)
(-2.26038 -0.0291259 -3.8716e-20)
(-2.23358 -0.0298528 -3.5087e-20)
(-2.20601 -0.0305129 -3.67205e-20)
(-2.17767 -0.0311401 3.5085e-20)
(-2.14861 -0.0317051 -4.81748e-21)
(-2.11885 -0.0322419 -1.94514e-20)
(-2.0884 -0.0327256 -3.88327e-21)
(-2.05729 -0.0331871 -2.0564e-20)
(-2.02553 -0.0336076 -2.48461e-20)
(-1.99313 -0.0340132 -1.15005e-20)
(-1.96009 -0.0343918 5.34474e-21)
(-1.92641 -0.0347576 3.53201e-21)
(-1.8921 -0.0351124 3.03249e-21)
(-1.85714 -0.0354669 -1.95094e-21)
(-1.82147 -0.0358381 3.57677e-21)
(-1.78506 -0.0362233 -6.09265e-23)
(-1.74794 -0.0365857 8.51775e-21)
(-1.71017 -0.0369353 -8.10162e-21)
(-1.6717 -0.0372842 1.273e-20)
(-1.6325 -0.0376501 6.68958e-21)
(-1.59255 -0.038029 -1.47752e-20)
(-1.55182 -0.0384267 -5.10861e-21)
(-1.51029 -0.038826 -2.75509e-20)
(-1.46796 -0.0392415 -1.79954e-20)
(-1.42481 -0.0396614 4.05616e-20)
(-1.38081 -0.040094 6.79922e-20)
(-1.33597 -0.0405288 -9.64293e-20)
(-1.29027 -0.040972 3.04265e-20)
(-1.2437 -0.0414121 6.18305e-21)
(-1.19624 -0.0418563 -1.77446e-19)
(-1.14791 -0.0422875 4.47533e-21)
(-1.09869 -0.0427128 2.88467e-21)
(-1.04861 -0.0431207 -6.18312e-20)
(-0.997666 -0.0435185 8.01559e-20)
(-0.945882 -0.0438988 1.15544e-19)
(-0.893248 -0.0442702 1.23031e-19)
(-0.839802 -0.0446276 1.11864e-19)
(-0.785524 -0.0449781 -1.70192e-19)
(-0.730452 -0.0453214 2.22291e-20)
(-0.674563 -0.0456554 -4.90147e-20)
(-0.617884 -0.0459877 1.35715e-19)
(-0.560411 -0.0463083 -4.2381e-20)
(-0.502158 -0.0466203 1.76633e-19)
(-0.443138 -0.0469163 -1.81108e-19)
(-0.383372 -0.0471969 -2.89545e-19)
(-0.32288 -0.0474573 -4.55892e-19)
(-0.261691 -0.0476998 -2.22055e-19)
(-0.199833 -0.0479164 -1.03754e-19)
(-0.137341 -0.0481034 5.1441e-20)
(-0.0742786 -0.0482415 3.24478e-20)
(-0.0106939 -0.0482941 -3.8714e-19)
(0.0533403 -0.0481851 -3.62521e-19)
(0.117471 -0.047781 4.99968e-19)
(0.181459 -0.0468922 6.09961e-19)
(0.243158 -0.0450546 5.71165e-19)
(0.307665 -0.0411077 2.87228e-19)
(0.349091 -0.0287351 -6.17014e-19)
(0.000447946 0.0224234 2.81228e-19)
(0.00157041 0.0359949 2.64527e-18)
(0.00666745 0.0326265 2.78143e-18)
(0.0229165 0.00747252 -2.02291e-18)
(0.0569594 -0.0433816 3.65182e-19)
(0.104172 -0.105608 -1.62199e-19)
(0.154891 -0.15914 -6.43786e-20)
(0.201704 -0.193034 4.79095e-19)
(0.241194 -0.206003 3.68398e-19)
(0.272834 -0.202165 3.01975e-19)
(0.297536 -0.186992 1.34854e-19)
(0.316647 -0.165258 1.27286e-19)
(0.331376 -0.140352 -4.04739e-19)
(0.342604 -0.114364 -2.51011e-19)
(0.350926 -0.0884679 9.02203e-20)
(0.356746 -0.0632468 -1.95697e-19)
(0.360351 -0.0389578 1.92079e-19)
(0.361947 -0.0157281 2.89444e-20)
(0.361764 0.00644381 2.86642e-19)
(0.360119 0.0276888 2.50202e-19)
(0.357265 0.0480782 -2.37481e-19)
(0.353365 0.0675261 -6.42259e-19)
(0.348331 0.0856699 -1.16399e-19)
(0.341778 0.10179 -7.56885e-19)
(0.33303 0.114814 1.71474e-19)
(0.321293 0.123385 2.73375e-19)
(0.305865 0.126099 -1.12797e-19)
(0.286557 0.121851 4.06077e-19)
(0.264029 0.110244 2.32833e-19)
(0.24002 0.0917876 5.59694e-19)
(0.21712 0.0678049 -3.09262e-19)
(0.198214 0.0398304 -2.21241e-19)
(0.185366 0.00953993 1.23398e-19)
(0.178834 -0.0231385 -1.44274e-19)
(0.176936 -0.0561894 -1.88952e-19)
(0.17389 -0.0782571 -1.0406e-20)
(0.164999 -0.0801307 -4.96992e-19)
(0.149327 -0.0641964 1.66949e-19)
(0.127214 -0.0381732 -4.26401e-19)
(0.09908 -0.00858613 -1.53509e-19)
(0.0643626 0.0219739 1.5164e-19)
(0.0196623 0.0497456 -1.74851e-19)
(-0.0449921 0.0749621 -3.28817e-19)
(-0.132981 0.110239 6.85105e-19)
(-0.242528 0.157253 5.65263e-19)
(-0.369803 0.210327 -2.91819e-19)
(-0.507364 0.264925 1.06457e-19)
(-0.646916 0.315364 -1.03386e-19)
(-0.783146 0.357094 -1.57994e-19)
(-0.912262 0.389435 -6.83557e-20)
(-1.03086 0.41176 -6.67973e-20)
(-1.13734 0.423522 1.17199e-19)
(-1.23104 0.425129 1.88387e-20)
(-1.31165 0.417306 8.22172e-20)
(-1.38038 0.401079 9.10057e-21)
(-1.43904 0.378873 1.01578e-20)
(-1.49 0.353217 4.27808e-20)
(-1.53507 0.325595 6.55789e-20)
(-1.57595 0.29783 -1.09738e-20)
(-1.61389 0.271217 2.09422e-19)
(-1.64989 0.246245 1.508e-19)
(-1.6845 0.223441 3.48227e-20)
(-1.71807 0.203175 7.77721e-20)
(-1.75065 0.185244 -1.81085e-19)
(-1.78238 0.169533 2.69124e-20)
(-1.81333 0.155773 1.05116e-19)
(-1.84343 0.143824 -1.68947e-19)
(-1.87263 0.133407 -7.6695e-20)
(-1.90094 0.12426 5.15173e-20)
(-1.92833 0.116192 4.02982e-20)
(-1.95484 0.109028 -8.55088e-20)
(-1.98046 0.102623 1.47493e-19)
(-2.00521 0.0968564 1.72827e-20)
(-2.02911 0.0916277 5.31151e-20)
(-2.05218 0.0868555 -1.74118e-19)
(-2.07445 0.082472 1.68243e-19)
(-2.09595 0.0784199 3.52952e-20)
(-2.1167 0.0746519 -7.26789e-20)
(-2.13672 0.0711259 -1.31904e-19)
(-2.15605 0.0678064 -6.52739e-20)
(-2.17469 0.0646606 1.04543e-20)
(-2.19266 0.0616597 2.80524e-20)
(-2.20998 0.058776 -1.32201e-20)
(-2.22665 0.0559854 -9.85917e-20)
(-2.24266 0.0532663 -2.70878e-20)
(-2.25802 0.050598 -2.97748e-20)
(-2.2727 0.0479599 1.77894e-20)
(-2.28667 0.0453301 -6.17744e-20)
(-2.2999 0.0426908 -8.87901e-20)
(-2.31236 0.040018 -1.09446e-19)
(-2.32399 0.037298 3.53017e-20)
(-2.33481 0.0345156 -1.29532e-19)
(-2.34477 0.0316724 1.26342e-19)
(-2.35384 0.0287556 1.11083e-20)
(-2.36197 0.0257695 -3.0001e-20)
(-2.36913 0.0227118 -5.61552e-20)
(-2.3753 0.0195939 1.94841e-20)
(-2.38042 0.0164282 9.42831e-20)
(-2.38449 0.0132296 7.80966e-20)
(-2.38744 0.0100177 3.47206e-20)
(-2.38925 0.00679926 4.19797e-20)
(-2.38986 0.00358091 2.10512e-20)
(-2.3892 0.000349334 1.95463e-20)
(-2.38721 -0.00288006 -2.71815e-19)
(-2.38387 -0.00608936 5.36715e-20)
(-2.37914 -0.00925949 4.87784e-20)
(-2.373 -0.01238 -9.5136e-20)
(-2.36547 -0.0154376 8.11619e-20)
(-2.35653 -0.0184202 -2.70635e-20)
(-2.34621 -0.0213182 1.17373e-19)
(-2.33453 -0.0241193 8.54492e-20)
(-2.32151 -0.0268171 6.00688e-20)
(-2.30718 -0.0294013 -3.95074e-20)
(-2.29158 -0.0318693 4.76937e-20)
(-2.27475 -0.0342122 3.06753e-20)
(-2.25672 -0.0364277 -3.6623e-20)
(-2.23756 -0.0385106 -5.46755e-20)
(-2.21732 -0.0404658 1.69906e-19)
(-2.19603 -0.0422883 2.52278e-20)
(-2.17374 -0.043976 -5.72135e-20)
(-2.15047 -0.0455269 -1.42435e-19)
(-2.12626 -0.0469459 -1.7873e-20)
(-2.10117 -0.0482479 -1.20713e-21)
(-2.07524 -0.049448 -4.81726e-20)
(-2.04852 -0.0505606 4.884e-21)
(-2.02105 -0.051588 3.67368e-20)
(-1.99286 -0.0525405 -9.87266e-20)
(-1.96395 -0.0534178 3.20081e-20)
(-1.93436 -0.0542333 1.22487e-20)
(-1.9041 -0.0549873 4.56182e-20)
(-1.87318 -0.0556925 -1.19128e-20)
(-1.84161 -0.0563493 2.36499e-20)
(-1.80939 -0.056972 5.40792e-20)
(-1.77652 -0.0575602 4.95308e-21)
(-1.743 -0.0581217 -1.60204e-20)
(-1.70883 -0.0586536 3.38119e-21)
(-1.67397 -0.0591558 1.8149e-21)
(-1.63843 -0.0596316 -1.11577e-21)
(-1.60215 -0.0601141 1.48733e-21)
(-1.56516 -0.0606195 -6.52866e-22)
(-1.52747 -0.0611476 3.48467e-21)
(-1.48906 -0.0616897 -3.35184e-20)
(-1.4499 -0.0622589 -4.78036e-21)
(-1.40996 -0.0628456 -5.3569e-21)
(-1.36922 -0.0634553 -1.06574e-20)
(-1.32766 -0.0640743 5.00107e-20)
(-1.28527 -0.0647087 -1.48897e-20)
(-1.24203 -0.0653501 -3.22439e-20)