/*--------------------------------*- C++ -*----------------------------------*\
  =========                 |
  \\      /  F ield         | OpenFOAM: The Open Source CFD Toolbox
   \\    /   O peration     | Website:  https://openfoam.org
    \\  /    A nd           | Version:  13
     \\/     M anipulation  |
\*---------------------------------------------------------------------------*/
FoamFile
{
    format      ascii;
    class       volScalarField;
    location    "400";
    object      k;
}
// * * * * * * * * * * * * * * * * * * * * * * * * * * * * * * * * * * * * * //

dimensions      [0 2 -2 0 0 0 0];

internalField   nonuniform List<scalar> 
12225
(
0.546597
1.19196
1.53983
1.72056
1.46446
2.1965
3.55735
3.67054
3.56763
2.61635
2.14334
1.58669
2.21901
1.85014
1.5496
2.18869
1.99485
2.86082
0.375589
0.433519
0.492455
0.537393
0.54178
0.62473
0.690531
0.730556
0.769091
0.784533
0.772782
0.779912
0.803349
0.829982
0.821992
0.877665
0.866033
0.949408
0.371215
0.37549
0.380565
0.372593
0.35519
0.337561
0.312931
0.295806
0.272414
0.284938
0.272391
0.265874
0.269442
0.269767
0.270684
0.272735
0.27075
0.277216
0.372202
0.371464
0.370619
0.363968
0.350512
0.333905
0.311886
0.28403
0.255764
0.226587
0.200638
0.174812
0.153824
0.139516
0.12744
0.117793
0.112523
0.104305
0.37329
0.371045
0.369491
0.3653
0.356384
0.345035
0.330161
0.309299
0.285831
0.258131
0.230836
0.20536
0.180612
0.161855
0.146203
0.13552
0.125575
0.126972
0.373718
0.371314
0.369597
0.366643
0.361459
0.35338
0.343184
0.329283
0.31186
0.294213
0.274043
0.256983
0.239001
0.225053
0.212186
0.202958
0.193362
0.192954
0.373851
0.371421
0.369811
0.367358
0.364386
0.358896
0.351461
0.34255
0.330951
0.320186
0.307638
0.297412
0.287558
0.278666
0.272373
0.265246
0.260584
0.256796
0.373903
0.371407
0.369774
0.367546
0.365467
0.361891
0.357096
0.351282
0.344183
0.337374
0.330616
0.324306
0.319151
0.313915
0.310541
0.306457
0.304385
0.300706
0.373908
0.371448
0.369597
0.367546
0.365691
0.363132
0.359917
0.356097
0.351811
0.347442
0.343345
0.339367
0.336232
0.33301
0.330795
0.328124
0.326502
0.323999
0.373885
0.371505
0.369477
0.367477
0.365651
0.363565
0.361202
0.358491
0.35565
0.352692
0.349978
0.347298
0.345104
0.342887
0.341182
0.339255
0.337836
0.335975
0.373857
0.371545
0.369432
0.367419
0.365562
0.363664
0.361711
0.359607
0.35749
0.355319
0.353303
0.35132
0.349598
0.347894
0.346456
0.344933
0.343667
0.342193
0.373842
0.371557
0.369418
0.36739
0.365495
0.363654
0.361852
0.36002
0.358221
0.356423
0.354731
0.353082
0.351587
0.350126
0.348823
0.347496
0.346321
0.345052
0.373832
0.371559
0.369412
0.367375
0.365457
0.363624
0.361872
0.360161
0.358514
0.356904
0.355379
0.353905
0.352533
0.351204
0.349977
0.348765
0.347646
0.346511
0.373828
0.371557
0.369406
0.367365
0.365434
0.363599
0.361856
0.360187
0.358596
0.357067
0.355615
0.354222
0.352907
0.351644
0.350454
0.349303
0.348216
0.347154
0.373826
0.371553
0.3694
0.367356
0.365421
0.363581
0.361836
0.360173
0.358594
0.357086
0.355654
0.354285
0.352986
0.351743
0.350563
0.349433
0.348355
0.347324
0.373826
0.371551
0.369395
0.36735
0.36541
0.363568
0.361818
0.360156
0.358573
0.357069
0.355634
0.354271
0.352969
0.351731
0.350547
0.349422
0.348343
0.347317
0.373825
0.37155
0.369392
0.367345
0.365403
0.363559
0.361807
0.360141
0.358557
0.357048
0.355613
0.354245
0.352943
0.3517
0.350516
0.349386
0.348308
0.347278
0.373825
0.37155
0.369391
0.367343
0.365399
0.363553
0.3618
0.360132
0.358546
0.357035
0.355598
0.354228
0.352924
0.351679
0.350494
0.349361
0.348282
0.34725
0.373825
0.371549
0.369391
0.367343
0.365399
0.363553
0.361798
0.36013
0.358543
0.357032
0.355594
0.354223
0.352918
0.351672
0.350485
0.349352
0.348271
0.347238
0.373826
0.37155
0.369393
0.367345
0.365404
0.363557
0.361806
0.360136
0.358552
0.35704
0.355604
0.354233
0.35293
0.351683
0.350496
0.349357
0.34827
0.347228
0.373825
0.371553
0.369398
0.367349
0.365405
0.36356
0.361803
0.360139
0.358551
0.357049
0.355612
0.354252
0.352943
0.351693
0.350477
0.349303
0.348157
0.347047
0.373811
0.371575
0.369393
0.367292
0.365317
0.363429
0.361662
0.35999
0.358412
0.356927
0.355512
0.35417
0.352846
0.351536
0.350186
0.348806
0.347396
0.345948
0.373737
0.371669
0.369071
0.366584
0.364374
0.362228
0.360387
0.358675
0.357161
0.355713
0.354394
0.353128
0.351785
0.35027
0.348529
0.34656
0.344376
0.341936
0.373245
0.3711
0.366426
0.362467
0.359193
0.355667
0.353345
0.35106
0.349863
0.34811
0.347243
0.346416
0.345743
0.343936
0.341999
0.339471
0.335954
0.331711
0.373875
0.366758
0.358478
0.347282
0.337589
0.324479
0.318445
0.311395
0.312298
0.30193
0.303359
0.303485
0.314076
0.307629
0.312641
0.315889
0.313786
0.308555
0.386242
0.353255
0.316361
0.285809
0.251145
0.227833
0.221562
0.197225
0.195615
0.196068
0.225778
0.227194
0.253617
0.252468
0.251005
0.25977
0.266715
0.264761
0.37625
0.341587
0.238974
0.184514
0.144055
0.123623
0.0902714
0.105317
0.0825701
0.0859143
0.12869
0.141427
0.177153
0.190614
0.180288
0.198739
0.20515
0.198135
0.371332
0.103665
0.0247304
0.0142867
0.0099009
0.00776127
0.007989
0.0106596
0.0134055
0.0132308
0.0235525
0.0440442
0.0910449
0.148366
0.128427
0.15424
0.169186
0.174333
0.257882
0.0348207
0.0352644
0.0374431
0.0333021
0.0355825
0.0372808
0.0373789
0.0400977
0.0534169
0.0261653
0.157707
0.268031
0.38153
0.463685
0.520347
0.549058
0.573939
0.821922
1.12653
1.39416
1.538
1.5644
1.56475
1.55192
1.51636
1.46986
1.4242
1.37883
1.34229
1.31193
1.28702
1.26513
1.24635
1.22798
1.21265
1.5994e-08
3.94609e-07
2.02234e-06
8.00728e-06
2.69667e-05
8.32265e-05
0.000217521
0.000433257
0.000703233
0.00098571
0.00123821
0.00143103
0.00155901
0.00159824
0.00157473
0.00150012
0.00137289
0.00115512
0.000982039
0.000832616
0.000691158
0.00055369
0.000421749
0.000299976
0.000193825
0.00011313
6.06125e-05
3.12626e-05
1.64063e-05
9.20486e-06
5.78046e-06
4.50358e-06
6.24693e-06
1.3207e-05
2.10392e-05
0.00016059
0.000310812
0.000697138
0.00103955
0.00113105
0.00104314
0.000835918
0.000703243
0.000681177
0.000732482
0.000970936
0.00127688
0.00258415
0.00586062
0.0172898
0.0451546
0.0762261
0.0908658
0.0814808
0.093605
0.112151
0.12304
0.157434
0.175014
0.163695
0.159266
0.174211
0.142255
0.170664
0.171681
0.182849
0.1903
0.198448
0.206327
0.214002
0.221628
0.229079
0.236484
0.243755
0.250975
0.258092
0.26515
0.272122
0.27903
0.285861
0.292625
0.299313
0.305931
0.31247
0.318936
0.325314
0.331616
0.337822
0.343944
0.349958
0.355857
0.361634
0.367286
0.372804
0.378178
0.383404
0.388465
0.393364
0.398094
0.402695
0.407203
0.411532
0.415757
0.419858
0.423849
0.427714
0.431478
0.435111
0.438646
0.442043
0.445346
0.448506
0.451571
0.454493
0.457314
0.459993
0.462565
0.464991
0.467299
0.469458
0.47149
0.473376
0.475117
0.476716
0.478144
0.479427
0.480508
0.481431
0.482107
0.482584
0.482549
0.482941
0.483205
0.483251
0.483137
0.482917
0.482247
0.482025
0.481006
0.479859
0.478427
0.476853
0.474981
0.473028
0.470767
0.468469
0.465836
0.463215
0.460238
0.457324
0.454035
0.450859
0.447294
0.443892
0.440091
0.436497
0.432518
0.42877
0.424678
0.42072
0.416619
0.412562
0.408506
0.404473
0.400472
0.396509
0.392596
0.388737
0.384948
0.381228
0.377596
0.374033
0.370555
0.367115
0.363686
0.360154
0.356424
0.352123
0.346679
0.330069
7.68015e-08
2.15101e-06
1.45927e-05
6.37006e-05
0.000234156
0.0007052
0.00161996
0.00293728
0.00446922
0.00604056
0.00747126
0.00864705
0.00950829
0.0100555
0.0103085
0.0102596
0.010095
0.00974722
0.0091681
0.00837946
0.00738929
0.00624606
0.00501613
0.00376849
0.00260551
0.00171878
0.00109
0.000675489
0.000411274
0.000254025
0.000166974
0.000123665
0.000120597
0.00020319
0.000192628
0.00172902
0.00335367
0.0067996
0.00974659
0.0113784
0.0113193
0.0109223
0.0108822
0.011955
0.0151433
0.0202024
0.0296931
0.0463269
0.0724576
0.0976195
0.124053
0.145353
0.161595
0.171017
0.181502
0.194498
0.208283
0.226883
0.246011
0.262075
0.279222
0.299577
0.315672
0.336957
0.354391
0.373281
0.391272
0.409214
0.426905
0.444435
0.461813
0.47907
0.496223
0.513291
0.530283
0.547212
0.56408
0.580894
0.597652
0.614357
0.631004
0.647593
0.664116
0.680571
0.696948
0.71324
0.729438
0.74553
0.761509
0.77734
0.793011
0.808507
0.823812
0.83891
0.853775
0.868384
0.882703
0.896695
0.910314
0.923512
0.936262
0.948809
0.961112
0.973189
0.985025
0.996631
1.00799
1.01912
1.02999
1.04061
1.05098
1.0611
1.07096
1.08056
1.08989
1.09896
1.10775
1.11626
1.12449
1.13242
1.14005
1.14736
1.15436
1.16103
1.16735
1.17332
1.17891
1.18413
1.18895
1.19338
1.1974
1.20095
1.20407
1.20673
1.20886
1.20999
1.21226
1.21287
1.2139
1.2141
1.21418
1.2135
1.2123
1.21056
1.20831
1.20555
1.20228
1.19852
1.19428
1.18957
1.18441
1.17882
1.17282
1.16642
1.15966
1.15254
1.14511
1.13737
1.12937
1.12111
1.1127
1.10415
1.09548
1.08672
1.0779
1.06903
1.06014
1.05124
1.04236
1.03351
1.02472
1.01599
1.00733
0.998675
0.989982
0.981121
0.971884
0.9619
0.949344
0.921236
2.08743e-07
6.26285e-06
4.75444e-05
0.000225256
0.000667802
0.00189761
0.00384186
0.00611961
0.00841703
0.0105015
0.0122464
0.0135863
0.0145242
0.0150839
0.0153179
0.0152739
0.0151077
0.0147282
0.0142029
0.0135471
0.0127577
0.011829
0.0107415
0.00951821
0.00813807
0.00659788
0.00502899
0.00363869
0.00243624
0.00162739
0.00112013
0.000881508
0.000590383
0.00114451
0.00184671
0.0069497
0.0141781
0.0221051
0.0278658
0.0311963
0.0324065
0.0345479
0.0411184
0.0556128
0.0722481
0.0898313
0.109865
0.130976
0.150477
0.171311
0.191644
0.211742
0.232034
0.253265
0.279643
0.307647
0.33546
0.363259
0.391241
0.418535
0.445683
0.472773
0.498742
0.524754
0.549703
0.574426
0.598604
0.622455
0.645991
0.669278
0.692356
0.715264
0.73803
0.760677
0.78322
0.805672
0.828038
0.850323
0.872527
0.89465
0.916687
0.938635
0.960486
0.982235
1.00387
1.02539
1.04677
1.06802
1.08911
1.11001
1.1307
1.15116
1.17139
1.19137
1.21108
1.2305
1.24963
1.26843
1.28692
1.30508
1.32294
1.34048
1.35769
1.37457
1.3911
1.40729
1.42312
1.43859
1.45368
1.46841
1.48276
1.49675
1.51034
1.52356
1.53639
1.54884
1.5609
1.57256
1.5838
1.59464
1.60505
1.61503
1.62456
1.63363
1.64224
1.65035
1.65796
1.66505
1.67163
1.67764
1.68312
1.688
1.69229
1.69597
1.69908
1.70139
1.7035
1.70447
1.70504
1.70476
1.704
1.70245
1.7002
1.69718
1.69349
1.68905
1.68396
1.67816
1.67174
1.66465
1.657
1.64872
1.63995
1.6306
1.62081
1.61051
1.59985
1.58876
1.5774
1.56571
1.55382
1.54173
1.5295
1.51715
1.50472
1.49222
1.4797
1.46716
1.45465
1.44219
1.42981
1.41752
1.40534
1.39323
1.38117
1.36906
1.35672
1.34389
1.32869
1.30252
7.45398e-07
2.24523e-05
0.000175842
0.000733182
0.00211706
0.005018
0.00848244
0.0118703
0.0148168
0.0171455
0.0188267
0.0198989
0.020467
0.0205799
0.0204564
0.0201192
0.01958
0.0189242
0.0181862
0.0173788
0.0165057
0.0155636
0.0145362
0.0134064
0.0121582
0.010776
0.00928679
0.00774195
0.00631266
0.00488728
0.00386556
0.00289939
0.00305872
0.00483179
0.0116164
0.0257495
0.0392291
0.0498709
0.0578765
0.0654268
0.0749114
0.0873344
0.102014
0.116698
0.132106
0.148841
0.168336
0.189164
0.211731
0.236527
0.262738
0.290696
0.320161
0.351016
0.383304
0.415951
0.448624
0.481165
0.513394
0.545116
0.576343
0.607123
0.637202
0.666867
0.695941
0.724635
0.752945
0.780956
0.808711
0.836261
0.863644
0.890891
0.918028
0.945072
0.972036
0.998927
1.02575
1.0525
1.07917
1.10577
1.13228
1.1587
1.18502
1.21122
1.2373
1.26325
1.28905
1.3147
1.34017
1.36544
1.39047
1.41527
1.4398
1.46407
1.48803
1.5117
1.53503
1.55803
1.58067
1.60296
1.62487
1.64639
1.66749
1.68817
1.70841
1.7282
1.74753
1.76639
1.78478
1.80268
1.8201
1.83703
1.85347
1.86942
1.88486
1.89981
1.91425
1.92819
1.9416
1.95448
1.96682
1.97862
1.98985
2.00051
2.01057
2.02003
2.02886
2.03705
2.04459
2.05146
2.05765
2.06312
2.06787
2.07188
2.07515
2.07758
2.07927
2.07996
2.0799
2.07908
2.07744
2.07491
2.07153
2.06727
2.0622
2.05627
2.04956
2.04201
2.03375
2.0247
2.01499
2.00457
1.99356
1.98189
1.9697
1.95695
1.94375
1.93008
1.91606
1.9017
1.88708
1.87223
1.85721
1.84205
1.82679
1.81147
1.7961
1.78072
1.76537
1.75008
1.73488
1.71981
1.70488
1.69011
1.67547
1.66093
1.64634
1.63153
1.61488
1.59066
2.53156e-06
7.59198e-05
0.000568869
0.00216886
0.00597686
0.0111633
0.0160205
0.0199091
0.0226769
0.0244133
0.0253213
0.0255914
0.0254606
0.0250576
0.0243946
0.0236062
0.0227453
0.0218461
0.0209315
0.020009
0.0190764
0.0181247
0.017138
0.0160945
0.0149717
0.0137424
0.0124103
0.0110209
0.00968483
0.00832353
0.00700264
0.00742458
0.0113427
0.0233536
0.0427545
0.0611829
0.0764507
0.0883218
0.0984376
0.108489
0.119322
0.131154
0.14403
0.158822
0.176655
0.197292
0.220636
0.246543
0.274586
0.304514
0.335842
0.368423
0.401921
0.436103
0.470769
0.505592
0.540421
0.575134
0.609623
0.643805
0.677629
0.711108
0.744166
0.776887
0.809257
0.84134
0.873172
0.904798
0.936257
0.967585
0.998812
1.02996
1.06105
1.0921
1.1231
1.15407
1.18499
1.21586
1.24668
1.27743
1.30811
1.33869
1.36917
1.39954
1.42978
1.45987
1.48982
1.5196
1.54919
1.57857
1.6077
1.63658
1.66518
1.69349
1.72148
1.74914
1.77643
1.80335
1.82986
1.85595
1.88159
1.90676
1.93143
1.9556
1.97924
2.00233
2.02487
2.04683
2.06822
2.08901
2.10921
2.12879
2.14778
2.16616
2.18392
2.20107
2.2176
2.2335
2.24877
2.26339
2.27736
2.29066
2.30329
2.31522
2.32645
2.33695
2.34671
2.35573
2.36396
2.37141
2.37805
2.38388
2.38885
2.39298
2.39623
2.39852
2.39978
2.40011
2.39954
2.39805
2.39561
2.39217
2.38778
2.3824
2.37609
2.36883
2.36067
2.35161
2.3417
2.33095
2.31942
2.30712
2.29413
2.28045
2.26615
2.25124
2.23581
2.21988
2.20354
2.18682
2.16979
2.1525
2.13501
2.11736
2.09959
2.08174
2.06383
2.04591
2.02801
2.01018
1.99245
1.97488
1.9575
1.94032
1.92336
1.90661
1.89
1.8734
1.85544
1.83194
8.03565e-06
0.000235281
0.00168084
0.00596512
0.0134973
0.020167
0.0249354
0.027891
0.0294623
0.030073
0.030025
0.0296409
0.0288714
0.0279156
0.0268594
0.0257634
0.024672
0.0236099
0.0225911
0.0216149
0.0206732
0.0197509
0.0188261
0.017869
0.0168591
0.0157399
0.0144668
0.0130061
0.0115115
0.0114679
0.0135512
0.0216311
0.0388986
0.0617186
0.0833825
0.100896
0.113731
0.123159
0.131401
0.140162
0.150291
0.163142
0.179221
0.19844
0.220998
0.246533
0.27452
0.304447
0.335823
0.368379
0.401838
0.436045
0.470837
0.506096
0.541718
0.577588
0.613616
0.64972
0.685821
0.721849
0.757754
0.793516
0.829106
0.864534
0.899802
0.934936
0.969957
1.0049
1.03978
1.07462
1.10946
1.1443
1.17915
1.21402
1.24891
1.2838
1.3187
1.35357
1.38842
1.42322
1.45796
1.49261
1.52717
1.56161
1.59593
1.63009
1.6641
1.69793
1.73157
1.76498
1.79815
1.83104
1.86364
1.89593
1.92788
1.95946
1.99064
2.02139
2.05169
2.08151
2.1108
2.13955
2.16773
2.19532
2.22228
2.24861
2.27427
2.29926
2.32356
2.34715
2.37003
2.39219
2.41362
2.43432
2.4543
2.47354
2.49203
2.50978
2.52678
2.54302
2.55848
2.57317
2.58706
2.60015
2.61241
2.62384
2.63441
2.64413
2.65295
2.66088
2.6679
2.67398
2.67911
2.68328
2.68646
2.68852
2.68946
2.68939
2.68834
2.68621
2.68302
2.67875
2.6734
2.66699
2.65953
2.65104
2.64154
2.63107
2.61964
2.6073
2.59409
2.58005
2.56522
2.54965
2.53338
2.51646
2.49894
2.48088
2.46235
2.4434
2.4241
2.4045
2.38467
2.36464
2.34448
2.32421
2.30388
2.28353
2.26319
2.24292
2.22277
2.20278
2.18302
2.16351
2.14429
2.12538
2.10675
2.08831
2.06889
2.04512
2.55739e-05
0.00070334
0.00456483
0.0140302
0.0231572
0.0290347
0.0323048
0.0338859
0.0343835
0.0342
0.0335483
0.0324961
0.0312387
0.0298784
0.0284968
0.0271498
0.025876
0.0246927
0.0236048
0.0226022
0.0216693
0.0207795
0.0198995
0.018976
0.0180198
0.0171438
0.016517
0.0165672
0.0183444
0.0239425
0.03631
0.0570015
0.080297
0.101855
0.11916
0.131247
0.13958
0.146539
0.154131
0.164378
0.178072
0.195239
0.215936
0.239856
0.266582
0.295448
0.325874
0.357463
0.389966
0.423242
0.457184
0.491733
0.526837
0.562457
0.598551
0.635067
0.671942
0.709107
0.746499
0.784061
0.821741
0.859506
0.897324
0.935184
0.973077
1.01101
1.04899
1.08703
1.12515
1.16337
1.20168
1.2401
1.27862
1.31725
1.35597
1.39476
1.4336
1.47247
1.51135
1.5502
1.58901
1.62775
1.6664
1.70493
1.74334
1.78159
1.81967
1.85757
1.89527
1.93273
1.96993
2.00685
2.04347
2.07975
2.11566
2.15118
2.18626
2.22087
2.25497
2.28853
2.32151
2.35386
2.38556
2.41658
2.44689
2.47646
2.50526
2.53329
2.5605
2.58689
2.61244
2.63716
2.66102
2.68404
2.70619
2.72748
2.74791
2.76747
2.78615
2.80395
2.82086
2.83687
2.85197
2.86615
2.87939
2.89168
2.90302
2.91338
2.92275
2.93111
2.93845
2.94476
2.95002
2.95419
2.95727
2.95909
2.95975
2.9593
2.95774
2.955
2.9511
2.94601
2.93976
2.93235
2.9238
2.91413
2.90336
2.89151
2.87864
2.86476
2.84994
2.8342
2.8176
2.80019
2.78202
2.76312
2.74358
2.72343
2.70277
2.68164
2.66012
2.63826
2.61612
2.59377
2.57126
2.54861
2.52589
2.50312
2.48037
2.45768
2.43512
2.41273
2.39059
2.36874
2.34723
2.32612
2.30539
2.28499
2.26387
2.23913
7.64347e-05
0.00193554
0.0108188
0.0237778
0.0318195
0.0361177
0.0381838
0.0388468
0.03862
0.0377828
0.0364591
0.0348749
0.0331652
0.0314333
0.0297605
0.0281994
0.0267815
0.0255139
0.0243922
0.0233978
0.0225094
0.0216988
0.0209084
0.0201446
0.0196102
0.0196227
0.0211288
0.0256732
0.0357738
0.0528364
0.0739301
0.0952216
0.114766
0.130487
0.141637
0.149335
0.155974
0.164077
0.175078
0.189606
0.207785
0.229341
0.2539
0.280884
0.3097
0.339801
0.370845
0.402654
0.435148
0.468294
0.502081
0.53651
0.571586
0.607311
0.643668
0.680621
0.718129
0.756144
0.794613
0.833484
0.872708
0.912245
0.952061
0.992133
1.03245
1.07299
1.11376
1.15477
1.19601
1.23749
1.27921
1.32117
1.36334
1.40573
1.44829
1.49101
1.53385
1.57677
1.61974
1.66272
1.70567
1.74856
1.79137
1.83406
1.87662
1.91902
1.96124
2.00327
2.04508
2.08663
2.12792
2.16891
2.20958
2.24988
2.2898
2.32929
2.36831
2.40682
2.44477
2.48211
2.51881
2.55482
2.59009
2.62459
2.65828
2.69112
2.7231
2.75417
2.78432
2.81353
2.84178
2.86905
2.89535
2.92066
2.94499
2.96833
2.99067
3.01201
3.03235
3.05169
3.07
3.0873
3.10357
3.11879
3.13297
3.14608
3.15812
3.16908
3.17895
3.1877
3.19533
3.20182
3.20716
3.21132
3.21427
3.21586
3.21623
3.21537
3.21329
3.20994
3.20532
3.19944
3.1923
3.18391
3.17429
3.16345
3.15143
3.13824
3.12394
3.10856
3.09214
3.07473
3.05639
3.03717
3.0171
2.99626
2.9747
2.9525
2.92971
2.90643
2.8827
2.85859
2.83418
2.80951
2.78464
2.75963
2.73451
2.70933
2.68415
2.65904
2.63404
2.60923
2.58468
2.56045
2.53661
2.51321
2.49028
2.46777
2.44472
2.4185
0.000198335
0.00458887
0.0199204
0.0326038
0.0391957
0.0423624
0.0435631
0.0435031
0.0426439
0.0411357
0.0392575
0.0371808
0.0350507
0.0329804
0.0310566
0.0293319
0.0278388
0.0265829
0.0255641
0.0247653
0.0241944
0.0239202
0.0240605
0.0249998
0.0271177
0.0311651
0.0387284
0.0514699
0.0679703
0.0864131
0.105014
0.121795
0.135566
0.146031
0.154136
0.161749
0.170886
0.182845
0.198227
0.217012
0.238897
0.263403
0.290014
0.318183
0.347458
0.377536
0.408279
0.439652
0.471663
0.504342
0.537725
0.571851
0.606751
0.642438
0.67891
0.716154
0.754146
0.79285
0.832226
0.872229
0.912816
0.953947
0.995587
1.03771
1.08029
1.12332
1.16678
1.21066
1.25497
1.29968
1.3448
1.39029
1.43615
1.48234
1.52883
1.57556
1.62249
1.66956
1.71673
1.76393
1.81113
1.85828
1.90534
1.95229
1.99909
2.04572
2.09216
2.13838
2.18436
2.23007
2.27549
2.32059
2.36534
2.40972
2.45367
2.49716
2.54014
2.58256
2.62438
2.66553
2.70598
2.74565
2.78451
2.8225
2.85959
2.89572
2.93087
2.965
2.99808
3.03009
3.06102
3.09083
3.11955
3.14714
3.17361
3.19896
3.22318
3.24627
3.26823
3.28905
3.30872
3.32725
3.34463
3.36084
3.37589
3.38976
3.40244
3.41394
3.42423
3.43331
3.44116
3.44779
3.45315
3.45724
3.46
3.46132
3.46134
3.46005
3.45741
3.45342
3.44807
3.44137
3.43332
3.42393
3.41322
3.40121
3.38793
3.37341
3.35769
3.34081
3.3228
3.30374
3.28366
3.26263
3.24068
3.2179
3.19434
3.17009
3.14521
3.11978
3.09386
3.06753
3.04084
3.01387
2.98666
2.95928
2.93176
2.90416
2.87655
2.84899
2.82155
2.7943
2.76732
2.74067
2.71443
2.68868
2.66344
2.6387
2.61355
2.58547
0.000441572
0.0093083
0.0292042
0.0406115
0.0460609
0.0484143
0.0489407
0.0482783
0.0467739
0.0447126
0.0423252
0.0398044
0.0373157
0.0349872
0.0329163
0.031161
0.0297648
0.0287283
0.0280674
0.0277826
0.0278751
0.0286595
0.0306075
0.0346179
0.0415415
0.0517647
0.0648813
0.0796777
0.0954424
0.110971
0.125134
0.137228
0.147304
0.156074
0.164908
0.175264
0.188243
0.204276
0.22333
0.245073
0.269074
0.294865
0.32201
0.350133
0.378982
0.408434
0.438469
0.469122
0.500449
0.532514
0.565382
0.599107
0.633726
0.66927
0.705755
0.743184
0.781547
0.820822
0.860981
0.901991
0.943817
0.986424
1.02978
1.07386
1.11863
1.16407
1.21018
1.25692
1.30429
1.35226
1.40082
1.44993
1.49955
1.54965
1.60015
1.65101
1.70215
1.75351
1.805
1.85656
1.90813
1.95965
2.01108
2.06238
2.11352
2.16447
2.2152
2.26569
2.3159
2.36581
2.4154
2.46464
2.51349
2.56193
2.60991
2.65739
2.70431
2.75063
2.79628
2.84121
2.88536
2.92868
2.97108
3.01253
3.05297
3.09235
3.13062
3.16775
3.2037
3.23845
3.27197
3.30426
3.3353
3.3651
3.39364
3.42092
3.44694
3.4717
3.49519
3.51741
3.53836
3.55803
3.57643
3.59354
3.60935
3.62388
3.63711
3.64904
3.65966
3.66897
3.67695
3.6836
3.6889
3.69283
3.69533
3.69634
3.69593
3.69411
3.69085
3.68615
3.68002
3.67245
3.66345
3.65304
3.64121
3.62801
3.61345
3.59758
3.58043
3.56203
3.54245
3.52172
3.49991
3.47707
3.45326
3.42855
3.403
3.37671
3.34975
3.3222
3.29411
3.26557
3.23663
3.20736
3.17783
3.14807
3.11816
3.08814
3.0581
3.0281
2.9982
2.96849
2.93905
2.90995
2.88128
2.85311
2.82549
2.79842
2.77107
2.74121
0.00084204
0.0161122
0.0374719
0.0479538
0.0527325
0.054545
0.0545845
0.0534088
0.0514091
0.0488881
0.0461024
0.043273
0.0405903
0.038203
0.0362318
0.0347473
0.0338542
0.033557
0.0338135
0.0349605
0.0372696
0.0411008
0.0467909
0.0545027
0.0642133
0.0756995
0.0884274
0.101584
0.114456
0.126463
0.137344
0.147199
0.156631
0.166612
0.178155
0.191989
0.208434
0.227421
0.248677
0.271826
0.296497
0.322345
0.349084
0.376505
0.404501
0.433051
0.462193
0.491998
0.522551
0.553935
0.586224
0.61948
0.653759
0.689103
0.725543
0.763097
0.801769
0.841554
0.882438
0.924401
0.967418
1.01146
1.05651
1.10253
1.14949
1.19738
1.24617
1.29584
1.34635
1.39767
1.44978
1.50262
1.55615
1.61028
1.66496
1.72008
1.77558
1.83135
1.8873
1.94335
1.99941
2.05541
2.11132
2.16707
2.22264
2.27799
2.33308
2.38788
2.44237
2.4965
2.55027
2.60363
2.65657
2.70903
2.76099
2.81238
2.86316
2.91326
2.96265
3.01124
3.05899
3.10581
3.15165
3.19643
3.24008
3.28257
3.32382
3.36381
3.40247
3.4398
3.47576
3.51036
3.54358
3.57541
3.60586
3.63492
3.66258
3.68885
3.71372
3.73719
3.75925
3.77991
3.79917
3.81702
3.83346
3.84849
3.86211
3.87431
3.88511
3.89449
3.90246
3.909
3.9141
3.91774
3.91987
3.92045
3.91951
3.91703
3.91306
3.90757
3.90057
3.89206
3.88205
3.87055
3.85756
3.84313
3.82726
3.81001
3.79141
3.7715
3.75034
3.72796
3.70443
3.6798
3.65414
3.62752
3.60002
3.57173
3.54273
3.51309
3.48288
3.45217
3.42102
3.3895
3.35766
3.32557
3.29329
3.26088
3.22843
3.196
3.16367
3.13152
3.09963
3.06807
3.03694
3.00632
2.97627
2.94682
2.91718
2.88535
0.00135512
0.0232206
0.0452703
0.0553198
0.0596774
0.0610791
0.0607471
0.0591825
0.0568178
0.0540028
0.0510346
0.0481645
0.0456096
0.0435534
0.0421805
0.0416082
0.0416193
0.0425877
0.0445792
0.0477609
0.0522958
0.0582835
0.0657183
0.0744531
0.0842813
0.0948528
0.105746
0.116557
0.12704
0.137115
0.146955
0.157027
0.167992
0.18047
0.194907
0.211478
0.230121
0.25061
0.272663
0.295992
0.320346
0.345513
0.37134
0.397737
0.42468
0.452203
0.480377
0.509294
0.539049
0.569733
0.60143
0.634217
0.668159
0.703313
0.739722
0.777419
0.816424
0.856748
0.898395
0.941359
0.985629
1.03119
1.07801
1.12607
1.17535
1.22581
1.27743
1.33017
1.38399
1.43885
1.49469
1.55146
1.60908
1.66744
1.72645
1.78601
1.84601
1.90634
1.96688
2.02752
2.08817
2.14875
2.20919
2.26947
2.32952
2.3893
2.44878
2.50791
2.56666
2.62499
2.68288
2.74031
2.79723
2.85361
2.90941
2.96456
3.01902
3.07273
3.12564
3.17768
3.22879
3.2789
3.32792
3.37578
3.42241
3.46775
3.51174
3.55432
3.59544
3.63507
3.67319
3.7098
3.74491
3.77851
3.81059
3.84115
3.87019
3.8977
3.92368
3.94813
3.97106
3.99246
4.01234
4.03068
4.04751
4.06281
4.07659
4.08885
4.09959
4.10883
4.11657
4.12281
4.12753
4.13071
4.13232
4.13231
4.13066
4.12737
4.12254
4.11614
4.10817
4.09863
4.08752
4.07485
4.06065
4.04493
4.02773
4.00908
3.98903
3.96761
3.94488
3.92088
3.89566
3.86928
3.84181
3.81333
3.78394
3.75372
3.72274
3.69108
3.65882
3.62601
3.59272
3.55901
3.52494
3.49057
3.45598
3.42125
3.38644
3.35166
3.31695
3.2824
3.24809
3.2141
3.18053
3.14746
3.11498
3.08313
3.05118
3.01733
0.00201719
0.0296403
0.0525327
0.0626429
0.0668739
0.0680678
0.0674824
0.0656356
0.0630483
0.060152
0.0572944
0.0547489
0.0527173
0.0514743
0.0510341
0.0512994
0.0526177
0.0549587
0.0583662
0.0628611
0.0684545
0.0750872
0.0826389
0.0909309
0.0997738
0.10897
0.118376
0.127896
0.137562
0.147554
0.158202
0.169901
0.183003
0.19773
0.214159
0.232215
0.251737
0.272519
0.294362
0.317086
0.340551
0.364654
0.389333
0.414574
0.440404
0.466891
0.494121
0.522192
0.551206
0.581264
0.612458
0.644874
0.678593
0.713683
0.750202
0.788192
0.827688
0.868722
0.911311
0.955466
1.00119
1.04847
1.0973
1.14765
1.19951
1.25284
1.30759
1.36372
1.42117
1.47988
1.53978
1.60077
1.66274
1.72556
1.78909
1.85322
1.91781
1.98275
2.04791
2.11316
2.1784
2.24354
2.30852
2.37329
2.43779
2.50197
2.56578
2.62917
2.69208
2.75449
2.81638
2.87771
2.93844
2.99853
3.05793
3.11659
3.17444
3.23145
3.28756
3.34271
3.39683
3.44984
3.50167
3.55222
3.60143
3.64922
3.69555
3.74033
3.78353
3.82505
3.86489
3.9031
3.93967
3.97461
4.00791
4.03955
4.06955
4.09789
4.12459
4.14963
4.17303
4.19479
4.21491
4.23341
4.25026
4.26551
4.27913
4.29113
4.3015
4.3103
4.31752
4.32319
4.32726
4.32975
4.3306
4.32978
4.32716
4.32289
4.31703
4.30956
4.30048
4.28978
4.27747
4.26357
4.24808
4.23104
4.21247
4.19242
4.17091
4.14801
4.12374
4.09817
4.07131
4.04324
4.01404
3.98381
3.95262
3.92056
3.88771
3.85414
3.81993
3.78514
3.74983
3.71406
3.67787
3.64133
3.60454
3.56758
3.53054
3.49349
3.45651
3.41966
3.38302
3.34667
3.31071
3.27526
3.24038
3.20617
3.17193
3.1361
0.00281025
0.0355233
0.0598577
0.0701815
0.0743455
0.075392
0.0746032
0.0725402
0.0698136
0.0669951
0.064518
0.0626203
0.0614787
0.0610708
0.061351
0.0626929
0.0649856
0.0681904
0.072283
0.0772299
0.0829785
0.0894458
0.0965468
0.104194
0.112326
0.120898
0.129918
0.139461
0.149673
0.160747
0.172891
0.18627
0.200973
0.217001
0.234288
0.252713
0.272142
0.292439
0.313494
0.335219
0.357557
0.38048
0.403993
0.428131
0.452953
0.478545
0.505004
0.532433
0.560933
0.590606
0.621551
0.653866
0.687642
0.72296
0.759891
0.798498
0.838837
0.880954
0.924886
0.970658
1.01828
1.06777
1.1191
1.17226
1.22723
1.28395
1.34238
1.40244
1.46405
1.52709
1.59145
1.657
1.7236
1.79106
1.85922
1.92792
1.99703
2.06644
2.13605
2.20573
2.27538
2.3449
2.41423
2.48331
2.55207
2.62045
2.68837
2.75578
2.82261
2.88883
2.95442
3.01934
3.08355
3.147
3.20962
3.27137
3.3322
3.39207
3.45091
3.50867
3.56529
3.62068
3.67475
3.72743
3.77864
3.82832
3.8764
3.92281
3.96751
4.01042
4.05153
4.09087
4.12843
4.16419
4.19817
4.23035
4.26075
4.28935
4.31618
4.34122
4.36451
4.38604
4.40583
4.42389
4.44023
4.45488
4.46782
4.47909
4.48867
4.49662
4.50294
4.50766
4.51075
4.51221
4.51203
4.51005
4.50618
4.50071
4.49362
4.4849
4.47454
4.46255
4.44894
4.43371
4.41687
4.39847
4.37852
4.35706
4.33412
4.30977
4.28404
4.25699
4.22858
4.19893
4.16813
4.13627
4.10343
4.06968
4.03511
3.99979
3.96379
3.92718
3.89001
3.85235
3.81418
3.77563
3.73681
3.69779
3.65867
3.61952
3.58041
3.54141
3.50257
3.46399
3.42577
3.38803
3.35086
3.31438
3.27792
3.24024
0.00364987
0.0413579
0.0669242
0.0776017
0.0817929
0.0827426
0.0816714
0.079312
0.0765661
0.074086
0.0722169
0.0711712
0.0708028
0.070959
0.0720971
0.0741223
0.0769709
0.0805885
0.0849361
0.0899763
0.0956759
0.102008
0.108956
0.116506
0.124673
0.133496
0.14305
0.15342
0.164708
0.177001
0.190348
0.204762
0.220215
0.236639
0.253953
0.272065
0.2909
0.310394
0.330509
0.351226
0.37255
0.394503
0.417127
0.44049
0.464677
0.489785
0.515892
0.543104
0.571533
0.601294
0.632498
0.665254
0.699668
0.735836
0.773849
0.813785
0.855715
0.8997
0.945792
0.994028
1.04443
1.09699
1.1517
1.20853
1.26744
1.32837
1.39125
1.45595
1.52234
1.59025
1.65949
1.72986
1.80117
1.87324
1.94587
2.01888
2.09205
2.16539
2.23889
2.31248
2.38603
2.45944
2.53265
2.60558
2.67815
2.75024
2.82179
2.89271
2.96294
3.03243
3.10117
3.16913
3.23624
3.30245
3.36771
3.43198
3.4952
3.55732
3.6183
3.67806
3.73655
3.79368
3.84936
3.90351
3.95605
4.00692
4.05604
4.10339
4.14889
4.19255
4.23433
4.27419
4.31207
4.34799
4.38194
4.41393
4.44397
4.47208
4.49826
4.52253
4.54492
4.56544
4.58413
4.60099
4.61607
4.62938
4.64096
4.65082
4.65903
4.66555
4.67045
4.6737
4.67533
4.67529
4.67366
4.67001
4.66465
4.65768
4.64909
4.63887
4.62704
4.61359
4.59853
4.58187
4.56363
4.54381
4.52246
4.4996
4.47527
4.44952
4.42239
4.39393
4.36413
4.33309
4.30089
4.2676
4.23331
4.19809
4.162
4.12514
4.08756
4.04933
4.01052
3.97119
3.93128
3.89096
3.85033
3.80949
3.76852
3.72748
3.68645
3.6455
3.60466
3.56402
3.52372
3.48388
3.44458
3.40598
3.36744
3.32811
0.00453974
0.0472913
0.0740102
0.0849809
0.0891868
0.0900054
0.0885828
0.086054
0.0835213
0.0815599
0.080447
0.0800391
0.0800928
0.0809609
0.082657
0.0851378
0.0883496
0.092255
0.0968312
0.102073
0.107982
0.114569
0.121855
0.129873
0.138665
0.148278
0.158755
0.170131
0.182423
0.195607
0.209671
0.224574
0.240256
0.256649
0.273704
0.291377
0.309651
0.328517
0.347995
0.368107
0.388894
0.410417
0.432761
0.456036
0.480369
0.505781
0.532341
0.560194
0.589465
0.620291
0.652793
0.687097
0.72332
0.761582
0.801977
0.844599
0.889516
0.936783
0.986438
1.03852
1.09306
1.15001
1.20929
1.27087
1.33467
1.40061
1.4686
1.53851
1.61014
1.68327
1.75758
1.83269
1.90842
1.98467
2.06129
2.13804
2.21473
2.29148
2.36834
2.44516
2.5218
2.59821
2.67448
2.75046
2.82598
2.90092
2.97518
3.04869
3.12139
3.19325
3.26421
3.33424
3.4033
3.47135
3.53835
3.60424
3.66897
3.73247
3.7947
3.85559
3.91509
3.9731
4.02952
4.08425
4.13722
4.18837
4.23763
4.28494
4.33026
4.37354
4.41474
4.45385
4.49084
4.52573
4.55852
4.58924
4.61791
4.64453
4.66914
4.69176
4.71241
4.73113
4.74795
4.76288
4.77597
4.78725
4.79674
4.8045
4.81055
4.81492
4.81767
4.81882
4.81838
4.81633
4.81239
4.80675
4.79949
4.79065
4.78023
4.76826
4.75473
4.73964
4.72301
4.70483
4.68512
4.66389
4.64116
4.61696
4.59133
4.56429
4.5359
4.50618
4.47522
4.44303
4.40968
4.37522
4.33973
4.30327
4.2659