/*--------------------------------*- C++ -*----------------------------------*\
  =========                 |
  \\      /  F ield         | OpenFOAM: The Open Source CFD Toolbox
   \\    /   O peration     | Website:  https://openfoam.org
    \\  /    A nd           | Version:  13
     \\/     M anipulation  |
\*---------------------------------------------------------------------------*/
FoamFile
{
    format      ascii;
    class       volScalarField;
    location    "400";
    object      nut;
}
// * * * * * * * * * * * * * * * * * * * * * * * * * * * * * * * * * * * * * //

dimensions      [0 2 -1 0 0 0 0];

internalField   nonuniform List<scalar> 
12225
(
5.43519e-06
1.20475e-05
1.58667e-05
1.80922e-05
1.56988e-05
2.39638e-05
3.94696e-05
4.1373e-05
4.07965e-05
3.03307e-05
2.51497e-05
1.88202e-05
2.65816e-05
2.23754e-05
1.88999e-05
2.68892e-05
2.46563e-05
3.56106e-05
0.000140264
5.55282e-05
4.20046e-05
3.90103e-05
3.57748e-05
4.33027e-05
4.46369e-05
4.91264e-05
5.21985e-05
5.02141e-05
4.9355e-05
4.95428e-05
4.99418e-05
5.07815e-05
4.96823e-05
5.26468e-05
5.17347e-05
5.68905e-05
0.000447079
0.000317881
0.000167877
0.000113656
8.67764e-05
6.82574e-05
5.24585e-05
4.44825e-05
3.79458e-05
3.77025e-05
3.46482e-05
3.29036e-05
3.25721e-05
3.21893e-05
3.18786e-05
3.1964e-05
3.16236e-05
3.22969e-05
0.00069985
0.000679256
0.000507946
0.000371158
0.000281327
0.000224174
0.000159177
0.000117804
9.21862e-05
7.62677e-05
6.29533e-05
5.12236e-05
4.28927e-05
3.76789e-05
3.32269e-05
2.95021e-05
2.74835e-05
2.50008e-05
0.000815116
0.000813036
0.000738525
0.000667
0.00050152
0.000426736
0.00034308
0.000281373
0.000203143
0.000158716
0.000129701
0.000112729
9.63493e-05
8.44818e-05
7.43476e-05
6.74978e-05
6.10987e-05
5.60382e-05
0.000845927
0.000838783
0.000820432
0.000766321
0.000619797
0.000536356
0.000475715
0.000393654
0.000314012
0.000263873
0.000229414
0.000202294
0.000184872
0.000166169
0.000152447
0.000143729
0.000133582
0.000130817
0.000850604
0.00085098
0.000845909
0.000832775
0.000755136
0.00062693
0.000520978
0.000464759
0.000414256
0.000352945
0.000309663
0.000280141
0.000266179
0.000257712
0.000236393
0.0002211
0.000214736
0.000212242
0.000851336
0.000850596
0.000853504
0.000848678
0.000831117
0.000755798
0.000651178
0.000569871
0.00049589
0.000465694
0.000448591
0.000414703
0.000380039
0.000362536
0.000352702
0.000347032
0.000335013
0.000329421
0.000851616
0.000850444
0.00085208
0.000852878
0.000847695
0.000821161
0.000758405
0.00070094
0.000638617
0.000594409
0.000560174
0.000536602
0.000514101
0.000497882
0.000488685
0.000483711
0.000478304
0.000471102
0.000851801
0.000850268
0.000849992
0.00085258
0.000851001
0.000842915
0.000817312
0.000784238
0.000749137
0.000717734
0.000691406
0.00067127
0.000655018
0.000640868
0.000630573
0.000620956
0.000615404
0.000607423
0.000851706
0.000850547
0.000849256
0.00085062
0.000851859
0.000848736
0.000840496
0.000826103
0.000810157
0.000793854
0.000779188
0.000766512
0.000756268
0.000747189
0.00073983
0.0007332
0.000728298
0.00072067
0.000851621
0.000850641
0.000849516
0.000849685
0.000848594
0.000849972
0.000847287
0.000841883
0.000834995
0.000827382
0.000820225
0.000813708
0.000808021
0.000802933
0.000798565
0.000794378
0.000790671
0.000786558
0.00085157
0.000850666
0.000849764
0.00084921
0.000848447
0.000848048
0.000847189
0.000845466
0.00084316
0.000840415
0.000837699
0.000835085
0.000832774
0.000830523
0.000828868
0.000826754
0.0008257
0.000823315
0.000851549
0.000850673
0.000849852
0.00084909
0.000848383
0.000847699
0.00084703
0.000846204
0.000845315
0.000844275
0.0008433
0.000842276
0.000841418
0.000840494
0.000839818
0.000838979
0.000838439
0.000837601
0.000851542
0.000850673
0.000849862
0.000849075
0.000848349
0.000847637
0.000846979
0.000846309
0.00084568
0.000845028
0.000844429
0.000843822
0.000843278
0.000842729
0.000842242
0.00084175
0.000841306
0.000840851
0.000851538
0.000850674
0.000849855
0.000849073
0.000848333
0.000847625
0.000846955
0.000846311
0.000845699
0.00084511
0.000844549
0.000844012
0.000843499
0.000843011
0.000842542
0.000842097
0.000841667
0.000841258
0.000851537
0.000850673
0.000849852
0.000849069
0.000848326
0.000847618
0.000846944
0.0008463
0.000845688
0.000845101
0.000844542
0.000844007
0.000843497
0.000843008
0.000842542
0.000842094
0.000841668
0.000841256
0.000851539
0.000850677
0.000849858
0.000849077
0.000848335
0.000847626
0.000846953
0.000846308
0.000845695
0.000845108
0.000844548
0.000844012
0.000843501
0.00084301
0.000842543
0.000842093
0.000841665
0.000841253
0.000851538
0.000850674
0.000849851
0.000849069
0.000848324
0.000847615
0.000846939
0.000846294
0.000845678
0.00084509
0.000844528
0.000843991
0.000843478
0.000842987
0.000842516
0.000842065
0.00084163
0.000841213
0.000851542
0.000850671
0.000849848
0.00084907
0.000848322
0.000847616
0.000846933
0.000846294
0.000845667
0.000845092
0.000844522
0.000844007
0.00084349
0.000843011
0.000842505
0.000842013
0.000841486
0.00084097
0.00085159
0.000850638
0.000849804
0.000849023
0.000848235
0.000847459
0.000846775
0.0008461
0.000845481
0.00084496
0.000844389
0.000844032
0.000843551
0.000843116
0.00084226
0.000841293
0.000839914
0.000838467
0.000851857
0.000850653
0.000848408
0.000847448
0.00084565
0.000843878
0.00084361
0.000842418
0.000842513
0.000841559
0.000841628
0.000841508
0.000842519
0.000841896
0.000838938
0.000835052
0.000829334
0.000823115
0.000854441
0.000845722
0.000833326
0.000825398
0.000814483
0.000804505
0.000805834
0.000805304
0.000797726
0.00078964
0.000795119
0.000799668
0.000805689
0.000795998
0.000795893
0.000793042
0.000782062
0.000768685
0.000858345
0.000788041
0.000724939
0.000679785
0.000644183
0.000603727
0.000587918
0.000593846
0.000575704
0.000567802
0.000566203
0.000599916
0.00059692
0.000596466
0.000637679
0.000632069
0.000647405
0.000653441
0.000880658
0.000734347
0.000438202
0.000311523
0.000283431
0.000259809
0.000250035
0.000240012
0.000237485
0.00023287
0.00026188
0.000268166
0.000284943
0.00031974
0.000346496
0.000358525
0.000400643
0.000406765
0.00737907
0.000160829
7.85428e-05
6.55831e-05
4.84292e-05
4.47494e-05
4.17115e-05
3.96741e-05
4.4534e-05
5.58619e-05
8.34893e-05
9.33236e-05
0.00012276
0.000140711
0.000160026
0.000183448
0.000193078
0.000215949
0.00570982
0.000488198
1.62493e-05
1.30773e-05
9.48594e-06
8.86901e-06
6.59357e-06
1.00834e-05
8.87995e-06
1.11214e-05
2.04854e-05
2.89735e-05
4.24878e-05
5.10341e-05
5.90708e-05
7.80716e-05
8.85808e-05
8.71058e-05
0.00273619
3.65201e-07
5.45183e-08
3.25282e-08
2.45423e-08
2.21556e-08
2.60142e-08
3.9373e-08
5.71166e-08
9.22352e-08
3.25842e-07
1.2523e-06
4.63622e-06
1.20588e-05
1.4478e-05
2.24495e-05
2.9864e-05
3.15053e-05
5.02867e-06
3.66115e-09
7.75966e-09
1.21852e-08
2.0027e-08
3.22025e-08
4.24976e-08
5.37765e-08
7.19166e-08
1.77056e-07
2.26633e-07
3.15481e-06
8.16074e-06
2.22034e-05
3.95834e-05
4.65754e-05
4.84149e-05
4.99563e-05
1.07407e-05
1.48589e-05
1.86021e-05
2.07951e-05
2.14442e-05
2.17406e-05
2.1845e-05
2.16132e-05
2.11954e-05
2.07568e-05
2.02905e-05
1.99265e-05
1.96312e-05
1.93981e-05
1.91943e-05
1.90245e-05
1.88509e-05
1.87148e-05
1.39524e-12
1.5695e-10
8.0366e-10
3.17924e-09
1.06976e-08
3.29863e-08
8.6136e-08
1.7141e-07
2.77968e-07
3.89266e-07
4.8853e-07
5.64081e-07
6.13951e-07
6.28803e-07
6.1896e-07
5.89067e-07
5.38585e-07
4.52708e-07
3.84496e-07
3.25669e-07
2.70067e-07
2.16133e-07
1.64463e-07
1.16856e-07
7.54268e-08
4.39782e-08
2.35378e-08
1.21274e-08
6.35748e-09
3.56306e-09
2.23509e-09
1.73945e-09
2.41013e-09
5.08972e-09
8.09896e-09
6.17481e-08
1.19373e-07
2.67439e-07
3.98333e-07
4.32884e-07
3.98767e-07
3.19169e-07
2.68188e-07
2.59458e-07
2.78658e-07
3.68917e-07
4.84558e-07
9.7942e-07
2.21842e-06
6.53636e-06
1.70486e-05
2.87427e-05
3.4218e-05
2.59176e-05
2.93079e-05
3.51792e-05
3.50685e-05
4.13738e-05
4.28854e-05
3.78126e-05
3.49233e-05
3.64567e-05
2.86144e-05
3.3162e-05
3.23005e-05
3.34023e-05
3.38522e-05
3.445e-05
3.50163e-05
3.55636e-05
3.61149e-05
3.66483e-05
3.71841e-05
3.77076e-05
3.82315e-05
3.87473e-05
3.92622e-05
3.97722e-05
4.02809e-05
4.07867e-05
4.12917e-05
4.17947e-05
4.22976e-05
4.27993e-05
4.33015e-05
4.38027e-05
4.43051e-05
4.48068e-05
4.53088e-05
4.58083e-05
4.63061e-05
4.68038e-05
4.73023e-05
4.78017e-05
4.83014e-05
4.88012e-05
4.92994e-05
4.97965e-05
5.02918e-05
5.07911e-05
5.12976e-05
5.17976e-05
5.2302e-05
5.28105e-05
5.33253e-05
5.38442e-05
5.43708e-05
5.49013e-05
5.544e-05
5.5982e-05
5.65327e-05
5.70864e-05
5.76492e-05
5.82155e-05
5.87912e-05
5.93716e-05
5.99618e-05
6.05577e-05
6.11642e-05
6.17792e-05
6.2407e-05
6.30473e-05
6.37017e-05
6.43726e-05
6.50582e-05
6.57648e-05
6.64878e-05
6.72362e-05
6.80011e-05
6.87928e-05
6.95712e-05
7.04754e-05
7.1429e-05
7.24263e-05
7.34826e-05
7.46109e-05
7.57623e-05
7.70836e-05
7.83741e-05
7.83423e-05
7.81272e-05
7.79095e-05
7.76527e-05
7.74046e-05
7.71118e-05
7.68357e-05
7.65072e-05
7.62041e-05
7.58413e-05
7.55128e-05
7.5118e-05
7.47662e-05
7.43421e-05
7.39691e-05
7.35188e-05
7.31265e-05
7.26565e-05
7.22461e-05
7.17671e-05
7.13241e-05
7.08511e-05
7.03834e-05
6.9913e-05
6.9442e-05
6.8972e-05
6.8503e-05
6.80367e-05
6.75729e-05
6.7114e-05
6.66588e-05
6.62107e-05
6.57663e-05
6.53291e-05
6.48932e-05
6.44584e-05
6.40131e-05
6.35492e-05
6.30311e-05
6.24083e-05
6.07605e-05
6.69981e-12
1.07891e-09
1.4719e-08
7.95037e-08
3.44067e-07
1.14982e-06
2.61833e-06
4.77903e-06
7.41709e-06
1.04099e-05
1.34135e-05
1.62026e-05
1.85315e-05
2.02535e-05
2.12307e-05
2.14588e-05
2.10662e-05
2.03145e-05
1.78634e-05
1.48245e-05
1.13226e-05
8.26412e-06
5.79525e-06
3.87246e-06
2.44485e-06
1.51082e-06
9.33789e-07
5.85329e-07
3.69248e-07
2.49656e-07
1.86858e-07
1.67139e-07
1.93172e-07
3.69825e-07
3.94945e-07
3.80497e-06
7.45438e-06
1.48564e-05
2.03613e-05
2.22652e-05
2.0875e-05
1.88166e-05
1.63883e-05
1.51142e-05
1.54782e-05
1.58202e-05
1.86764e-05
2.55423e-05
3.70315e-05
4.80517e-05
6.03692e-05
7.09496e-05
8.01588e-05
8.53683e-05
9.40456e-05
0.0001041
0.000114335
0.000128084
0.000144207
0.0001556
0.000167021
0.000182891
0.000191165
0.000205013
0.000216102
0.000227852
0.000238924
0.000249732
0.000259968
0.000269982
0.000279641
0.000289084
0.000298263
0.000307267
0.000316071
0.000324729
0.000333228
0.000341604
0.000349845
0.000357977
0.000365991
0.000373902
0.000381706
0.000389414
0.000397021
0.000404535
0.000411947
0.00041926
0.000426469
0.000433575
0.000440568
0.000447449
0.000454205
0.000460829
0.0004673
0.000473599
0.000479684
0.000485502
0.000490947
0.000495879
0.000500136
0.000504399
0.000508517
0.000512512
0.000516394
0.000520157
0.00052381
0.00052735
0.000530783
0.000534107
0.00053733
0.000540448
0.000543473
0.000546398
0.000549234
0.000551976
0.000554632
0.000557198
0.00055968
0.000562072
0.000564381
0.0005666
0.00056873
0.000570767
0.000572705
0.000574549
0.000576288
0.00057793
0.000579459
0.00058088
0.000582123
0.000583054
0.000584054
0.0005848
0.000585338
0.000585406
0.000586224
0.000586208
0.000586658
0.000586833
0.000587172
0.000587165
0.000587336
0.000586724
0.000586589
0.000585555
0.000585111
0.000583668
0.000582905
0.000581077
0.000579994
0.000577811
0.000576408
0.000573902
0.000572183
0.00056941
0.00056736
0.00056441
0.000562019
0.000559018
0.000556177
0.000553219
0.000550177
0.000547086
0.000543936
0.000540736
0.000537494
0.000534213
0.000530901
0.000527564
0.000524211
0.000520836
0.00051745
0.000514001
0.000510455
0.000506727
0.000502676
0.000497979
0.000491902
0.000475351
1.82098e-11
3.12481e-09
5.87226e-08
3.58172e-07
1.00653e-06
2.86072e-06
6.03366e-06
1.05145e-05
1.60884e-05
2.24213e-05
2.91793e-05
3.57751e-05
4.17034e-05
4.66177e-05
5.02846e-05
5.26511e-05
5.39157e-05
5.40741e-05
5.23275e-05
4.93779e-05
4.46865e-05
3.86662e-05
3.16263e-05
2.47292e-05
1.84994e-05
1.31874e-05
9.00576e-06
6.02904e-06
3.87807e-06
2.61712e-06
1.85894e-06
1.59499e-06
1.2009e-06
2.68986e-06
4.87703e-06
1.85969e-05
3.68919e-05
5.42624e-05
6.30702e-05
6.11948e-05
4.92877e-05
3.98657e-05
3.85478e-05
4.4427e-05
5.13103e-05
6.03266e-05
7.26079e-05
8.49562e-05
9.74844e-05
0.000114142
0.00013234
0.000152571
0.000174385
0.000197829
0.000226917
0.000257447
0.000287775
0.000318569
0.000348919
0.000377514
0.000405165
0.000433071
0.00045804
0.000483777
0.000507008
0.00052992
0.00055176
0.000572768
0.000593074
0.000612823
0.000632035
0.000650817
0.000669189
0.000687223
0.00070493
0.000722357
0.00073951
0.000756418
0.000773085
0.000789527
0.000805748
0.000821757
0.000837556
0.00085315
0.000868539
0.000883724
0.000898699
0.000913464
0.000928009
0.000942325
0.000956393
0.000970204
0.000983735
0.000996964
0.00100986
0.00102238
0.00103449
0.00104612
0.00105722
0.00106777
0.00107791
0.00108786
0.00109753
0.00110693
0.00111608
0.00112496
0.00113359
0.00114197
0.00115011
0.00115801
0.00116568
0.00117312
0.00118034
0.00118736
0.00119417
0.00120079
0.00120721
0.00121345
0.0012195
0.00122537
0.00123104
0.00123653
0.00124182
0.00124692
0.0012518
0.00125648
0.00126093
0.00126515
0.00126912
0.00127281
0.0012762
0.00127924
0.00128208
0.00128453
0.00128668
0.00128832
0.00129026
0.00129131
0.0012924
0.00129303
0.00129352
0.00129358
0.00129335
0.00129241
0.00129142
0.00128959
0.00128782
0.00128513
0.0012826
0.00127907
0.00127582
0.00127151
0.00126757
0.00126254
0.001258
0.00125237
0.00124721
0.0012411
0.00123538
0.001229
0.00122265
0.0012161
0.0012094
0.00120259
0.00119568
0.00118866
0.00118157
0.0011744
0.00116718
0.00115992
0.00115263
0.00114532
0.00113797
0.0011305
0.00112284
0.0011148
0.00110608
0.00109588
0.00108237
0.00105236
6.50251e-11
1.10201e-08
1.7562e-07
7.70063e-07
2.40699e-06
6.65573e-06
1.32588e-05
2.21664e-05
3.26819e-05
4.36997e-05
5.43209e-05
6.41232e-05
7.24884e-05
7.88423e-05
8.35526e-05
8.65117e-05
8.76401e-05
8.7307e-05
8.56348e-05
8.23721e-05
7.77936e-05
7.21917e-05
6.47687e-05
5.60183e-05
4.65098e-05
3.70884e-05
2.8591e-05
2.15334e-05
1.62254e-05
1.19013e-05
9.34695e-06
7.14841e-06
7.98232e-06
1.2551e-05
2.73216e-05
5.04516e-05
6.8553e-05
7.85613e-05
7.53994e-05
7.18291e-05
7.12618e-05
7.42165e-05
8.12383e-05
9.1659e-05
0.000105881
0.000117246
0.000135524
0.000157876
0.000183207
0.000214578
0.000248676
0.000286689
0.000326967
0.000369451
0.00041362
0.000457802
0.000501417
0.000544416
0.000585856
0.000625845
0.00066402
0.000701666
0.000736983
0.000771638
0.000804355
0.000836171
0.0008669
0.000896746
0.000925818
0.00095422
0.000982017
0.00100929
0.00103608
0.00106243
0.00108838
0.00111396
0.00113918
0.00116406
0.00118861
0.00121283
0.00123674
0.00126034
0.00128363
0.00130661
0.00132928
0.00135164
0.00137368
0.00139541
0.0014168
0.00143784
0.00145851
0.00147879
0.00149865
0.00151806
0.001537
0.00155544
0.00157333
0.00159066
0.00160742
0.00162366
0.00163947
0.0016549
0.00166993
0.00168455
0.00169877
0.00171259
0.00172602
0.00173906
0.00175171
0.00176399
0.00177591
0.00178748
0.00179871
0.00180961
0.00182018
0.00183045
0.00184041
0.00185007
0.00185944
0.00186851
0.00187728
0.00188574
0.0018939
0.00190174
0.00190925
0.00191642
0.00192325
0.00192971
0.00193579
0.00194146
0.0019467
0.00195151
0.0019559
0.00195981
0.00196327
0.00196617
0.00196878
0.00197064
0.00197214
0.0019732
0.00197373
0.00197371
0.00197314
0.00197185
0.00197011
0.0019676
0.00196471
0.001961
0.00195698
0.00195213
0.00194704
0.00194111
0.00193502
0.00192808
0.00192108
0.00191324
0.00190538
0.0018968
0.0018882
0.00187906
0.00186976
0.00186022
0.00185046
0.00184054
0.00183046
0.00182024
0.0018099
0.00179946
0.00178894
0.00177837
0.00176775
0.0017571
0.00174639
0.00173555
0.00172445
0.00171288
0.00170042
0.00168596
0.00166706
0.00163148
2.20842e-10
3.29032e-08
3.9575e-07
1.87548e-06
6.50441e-06
1.56984e-05
2.92259e-05
4.53388e-05
6.21121e-05
7.79099e-05
9.16402e-05
0.000102223
0.00011002
0.000115421
0.000118426
0.000119619
0.000119239
0.00011748
0.00011453
0.00011038
0.000105072
9.90627e-05
9.16996e-05
8.30017e-05
7.30438e-05
6.21667e-05
5.12626e-05
4.14805e-05
3.35045e-05
2.70697e-05
2.17597e-05
2.08181e-05
2.66279e-05
4.48683e-05
6.87178e-05
8.36548e-05
9.08257e-05
9.38789e-05
9.61489e-05
0.000100559
0.000108654
0.000121272
0.000133978
0.00014639
0.000166659
0.000194501
0.000225087
0.00026267
0.000304322
0.000350989
0.000399961
0.000451708
0.000504515
0.00055812
0.000611628
0.000664477
0.00071627
0.000766878
0.000815628
0.000863257
0.000909072
0.000953753
0.000996629
0.00103825
0.00107848
0.00111765
0.0011558
0.00119305
0.00122951
0.00126526
0.00130037
0.00133489
0.00136887
0.00140235
0.00143536
0.00146791
0.00150003
0.00153171
0.00156297
0.00159382
0.00162425
0.00165427
0.00168389
0.00171309
0.00174187
0.00177025
0.00179819
0.00182572
0.0018528
0.00187944
0.00190561
0.00193128
0.00195642
0.00198102
0.00200504
0.00202847
0.00205129
0.0020735
0.00209512
0.00211617
0.00213669
0.00215671
0.0021762
0.00219516
0.0022136
0.00223153
0.00224893
0.00226582
0.00228221
0.00229809
0.00231349
0.00232843
0.0023429
0.00235693
0.00237053
0.0023837
0.00239646
0.00240881
0.00242075
0.00243229
0.00244341
0.00245412
0.00246441
0.00247427
0.0024837
0.00249267
0.00250119
0.00250923
0.00251677
0.00252381
0.00253034
0.00253638
0.00254178
0.00254666
0.00255099
0.00255465
0.00255767
0.00256005
0.00256188
0.00256312
0.00256367
0.00256355
0.00256273
0.00256116
0.00255893
0.00255595
0.00255233
0.00254794
0.00254295
0.00253722
0.00253096
0.00252396
0.00251648
0.00250829
0.00249969
0.00249042
0.0024808
0.00247058
0.00246008
0.00244911
0.00243785
0.00242629
0.00241447
0.00240242
0.00239017
0.00237774
0.00236514
0.00235241
0.00233957
0.00232665
0.00231367
0.00230061
0.00228747
0.00227418
0.00226063
0.00224658
0.00223164
0.00221466
0.00219285
0.00215701
7.00993e-10
8.14284e-08
9.90971e-07
5.04987e-06
1.65388e-05
3.50184e-05
5.73952e-05
8.01309e-05
9.99276e-05
0.000115582
0.000127214
0.000135851
0.000141185
0.000144078
0.000145042
0.00014446
0.000142583
0.000139597
0.000135638
0.000130673
0.00012477
0.000118245
0.000110595
0.000101812
9.1005e-05
7.57898e-05
6.12384e-05
4.77587e-05
3.65696e-05
3.19234e-05
3.33076e-05
4.52214e-05
6.68848e-05
8.80151e-05
0.000102753
0.000111652
0.000117144
0.000122929
0.000132523
0.000147781
0.000158747
0.000171567
0.000193629
0.000221604
0.000255438
0.000296408
0.000341856
0.000393066
0.000447154
0.000504282
0.000562768
0.000622461
0.000682316
0.000742031
0.000801059
0.000859188
0.000915943
0.00097136
0.00102564
0.00107846
0.00112978
0.00117968
0.00122817
0.00127542
0.00132148
0.0013665
0.00141054
0.00145372
0.00149611
0.00153777
0.00157876
0.00161914
0.00165893
0.00169816
0.00173685
0.00177501
0.00181266
0.00184979
0.00188641
0.00192251
0.00195811
0.0019932
0.00202778
0.00206185
0.00209541
0.00212845
0.00216098
0.00219298
0.00222447
0.00225542
0.00228582
0.00231565
0.00234488
0.0023735
0.00240148
0.00242881
0.00245548
0.00248151
0.00250689
0.00253164
0.00255577
0.0025793
0.0026022
0.00262449
0.00264615
0.0026672
0.00268762
0.00270744
0.00272664
0.00274525
0.00276327
0.00278072
0.0027976
0.00281393
0.00282973
0.00284499
0.00285973
0.00287396
0.00288768
0.00290089
0.00291357
0.00292575
0.0029374
0.00294853
0.00295912
0.00296918
0.00297868
0.00298761
0.00299597
0.00300374
0.00301098
0.00301762
0.00302359
0.00302896
0.00303369
0.00303766
0.00304088
0.00304346
0.00304544
0.00304671
0.00304724
0.00304703
0.00304607
0.00304435
0.00304189
0.00303868
0.00303474
0.00303004
0.00302464
0.00301851
0.00301173
0.00300425
0.00299616
0.0029874
0.00297807
0.00296812
0.00295768
0.00294667
0.00293525
0.00292337
0.00291111
0.00289851
0.00288559
0.0028724
0.00285896
0.0028453
0.00283143
0.00281738
0.00280319
0.00278888
0.00277447
0.00275998
0.00274539
0.00273066
0.00271568
0.00270026
0.00268403
0.00266602
0.0026436
0.00260978
2.23095e-09
2.079e-07
2.61937e-06
1.37952e-05
3.62514e-05
6.46955e-05
9.1617e-05
0.000113685
0.000130554
0.000143317
0.000152477
0.000158052
0.000160992
0.000161963
0.000161423
0.000159677
0.000156918
0.000153241
0.00014861
0.000142949
0.000136424
0.000128921
0.000120052
0.000103579
8.80701e-05
7.45992e-05
6.27421e-05
5.40762e-05
5.24733e-05
6.03582e-05
7.3751e-05
9.78525e-05
0.000116859
0.000129384
0.000138389
0.000146124
0.000156271
0.000171944
0.00018146
0.000193523
0.000214909
0.000242046
0.000276222
0.000316866
0.000363815
0.00041643
0.000472767
0.000532508
0.000594015
0.000657056
0.000720706
0.000784632
0.000848286
0.000911438
0.000973524
0.0010345
0.0010948
0.00115372
0.00121139
0.00126773
0.00132278
0.00137653
0.00142908
0.00148048
0.00153083
0.0015802
0.00162866
0.00167629
0.00172314
0.00176928
0.00181474
0.00185956
0.00190377
0.00194737
0.00199038
0.0020328
0.00207464
0.00211588
0.00215652
0.00219657
0.00223602
0.00227487
0.00231312
0.00235077
0.00238782
0.00242427
0.00246012
0.00249538
0.00253005
0.00256412
0.00259759
0.00263043
0.00266264
0.00269419
0.00272506
0.00275525
0.00278474
0.00281352
0.0028416
0.002869
0.00289572
0.00292177
0.00294712
0.00297179
0.00299577
0.00301905
0.00304163
0.00306352
0.00308472
0.00310524
0.00312508
0.00314425
0.00316277
0.00318064
0.00319787
0.00321448
0.00323047
0.00324585
0.00326062
0.0032748
0.00328838
0.00330136
0.00331374
0.00332551
0.00333667
0.00334722
0.00335714
0.00336644
0.00337511
0.00338313
0.00339056
0.00339742
0.00340358
0.00340907
0.00341389
0.00341787
0.00342114
0.00342374
0.00342569
0.00342691
0.00342739
0.00342712
0.0034261
0.00342432
0.00342181
0.00341856
0.00341464
0.00340999
0.00340462
0.00339856
0.00339181
0.00338438
0.00337631
0.00336758
0.00335824
0.00334829
0.00333778
0.00332671
0.00331517
0.00330314
0.0032907
0.00327787
0.00326468
0.00325118
0.00323737
0.0032233
0.00320897
0.00319442
0.00317968
0.00316479
0.00314976
0.00313463
0.00311937
0.00310398
0.00308837
0.0030724
0.00305578
0.0030377
0.00301614
0.00298547
6.66781e-09
5.48422e-07
7.01554e-06
2.95294e-05
6.26624e-05
9.6041e-05
0.000123923
0.000144795
0.000159249
0.000168191
0.000172712
0.00017465
0.00017482
0.000173609
0.000171348
0.000168216
0.000164203
0.000159231
0.000153393
0.000146809
0.000139415
0.000130851
0.000113352
9.69881e-05
8.33302e-05
7.34613e-05
7.00459e-05
7.38678e-05
8.20319e-05
0.000101785
0.000126732
0.000149469
0.000164335
0.000173802
0.000184509
0.000194666
0.00020133
0.000213105
0.000232167
0.000257102
0.000289608
0.000328399
0.000373868
0.000425177
0.000481522
0.0005416
0.000604096
0.000668432
0.000733778
0.000799789
0.000865943
0.000931934
0.000997282
0.00106173
0.00112573
0.00118873
0.00125071
0.00131154
0.00137121
0.00142971
0.00148707
0.0015433
0.00159845
0.00165258
0.00170576
0.00175804
0.00180947
0.00186012
0.00191003
0.00195925
0.0020078
0.00205572
0.00210301
0.00214968
0.00219573
0.00224114
0.00228591
0.00233003
0.00237349
0.00241628
0.00245839
0.00249983
0.00254058
0.00258066
0.00262007
0.00265882
0.0026969
0.00273433
0.00277113
0.00280728
0.0028428
0.00287767
0.00291189
0.00294544
0.0029783
0.00301046
0.00304191
0.00307262
0.00310262
0.00313193
0.00316054
0.00318844
0.00321562
0.00324207
0.00326777
0.00329274
0.00331694
0.0033404
0.00336309
0.00338503
0.00340622
0.00342666
0.00344636
0.00346533
0.00348357
0.0035011
0.00351792
0.00353405
0.00354948
0.00356423
0.00357828
0.00359166
0.00360436
0.00361639
0.00362776
0.00363846
0.00364849
0.00365786
0.00366657
0.0036746
0.003682
0.00368888
0.00369508
0.00370057
0.00370537
0.00370933
0.00371264
0.00371528
0.00371726
0.00371854
0.00371911
0.00371897
0.00371811
0.00371654
0.00371427
0.00371129
0.00370763
0.00370326
0.0036982
0.00369245
0.00368603
0.00367895
0.00367122
0.00366285
0.00365385
0.00364424
0.00363405
0.0036233
0.00361203
0.00360027
0.00358806
0.00357542
0.00356239
0.003549
0.00353527
0.00352122
0.00350688
0.00349227
0.00347742
0.00346238
0.00344717
0.00343181
0.00341632
0.00340068
0.00338486
0.00336875
0.00335215
0.00333454
0.00331429
0.00328731
1.73018e-08
1.3608e-06
1.56788e-05
4.98874e-05
8.9486e-05
0.000123465
0.000149322
0.00016712
0.000178415
0.000184378
0.00018643
0.000185703
0.00018313
0.000179443
0.000175051
0.000170072
0.00016449
0.00015826
0.000151411
0.000143942
0.0001358
0.000123213
0.000110304
0.00010253
9.94179e-05
9.42386e-05
9.70099e-05
0.000110754
0.000130101
0.00015113
0.00017121
0.000187925
0.000199995
0.000208728
0.000217694
0.000229011
0.00024616
0.000268513
0.000298012
0.000333856
0.000376326
0.000424579
0.000478336
0.000536594
0.000598273
0.000662236
0.000727665
0.000794062
0.000860954
0.000928023
0.000994966
0.00106113
0.00112689
0.00119217
0.00125658
0.00132005
0.00138253
0.00144397
0.00150437
0.00156373
0.00162206
0.00167938
0.00173574
0.0017912
0.00184578
0.00189956
0.00195256
0.00200484
0.00205643
0.00210738
0.00215771
0.00220744
0.00225657
0.00230511
0.00235303
0.00240029
0.0024469
0.00249282
0.00253804
0.00258254
0.0026263
0.00266933
0.00271161
0.00275316
0.002794
0.00283414
0.00287363
0.00291242
0.00295052
0.00298794
0.0030247
0.00306079
0.00309622
0.00313097
0.00316505
0.00319844
0.00323114
0.00326316
0.00329449
0.00332514
0.00335508
0.0033843
0.00341279
0.00344053
0.00346751
0.00349371
0.00351911
0.00354371
0.00356751
0.00359049
0.00361266
0.00363401
0.00365455
0.00367428
0.0036932
0.00371133
0.00372867
0.00374523
0.00376101
0.00377603
0.00379028
0.00380379
0.00381656
0.00382861
0.00383993
0.00385056
0.00386048
0.00386972
0.00387828
0.00388616
0.0038934
0.00390015
0.00390626
0.00391165
0.00391636
0.00392028
0.00392358
0.00392627
0.00392831
0.00392971
0.00393047
0.00393057
0.00393002
0.00392881
0.00392697
0.00392448
0.00392135
0.00391757
0.00391315
0.0039081
0.00390242
0.00389611
0.00388918
0.00388163
0.00387347
0.00386471
0.00385536
0.00384546
0.00383502
0.00382408
0.00381266
0.00380079
0.00378849
0.00377578
0.0037627
0.00374924
0.00373544
0.00372133
0.00370694
0.0036923
0.00367744
0.0036624
0.0036472
0.00363183
0.00361629
0.00360051
0.00358437
0.00356739
0.00354829
0.00352443
3.85207e-08
3.14275e-06
2.84395e-05
7.30397e-05
0.000116825
0.000150804
0.000173503
0.000187677
0.0001948
0.000196497
0.000194609
0.00019048
0.000185025
0.000178808
0.000172167
0.000164871
0.000157455
0.000149227
0.000140887
0.000132431
0.000123392
0.000114603
0.000107771
0.000105623
0.000110406
0.000121545
0.0001372
0.000154726
0.000172881
0.000190144
0.000204738
0.000216106
0.000227808
0.000240654
0.000256773
0.000276991
0.000303412
0.000335793
0.000374483
0.000418848
0.000468627
0.000523153
0.000581815
0.000643644
0.000707682
0.000773107
0.000839371
0.0009061
0.000972981
0.00103952
0.00110551
0.00117151
0.0012367
0.00130118
0.00136479
0.00142749
0.00148925
0.00155004
0.00160986
0.00166872
0.00172664
0.00178364
0.00183979
0.00189514
0.00194972
0.0020036
0.00205681
0.00210934
0.00216127
0.00221266
0.00226352
0.00231387
0.00236372
0.00241309
0.002462
0.00251047
0.00255831
0.00260541
0.00265176
0.00269732
0.00274208
0.00278602
0.00282915
0.00287147
0.00291299
0.00295373
0.00299369
0.00303291
0.00307145
0.00310933
0.00314656
0.00318317
0.00321915
0.00325451
0.00328925
0.00332337
0.00335687
0.00338974
0.00342197
0.00345354
0.00348444
0.00351465
0.00354414
0.0035729
0.00360089
0.00362809
0.00365448
0.00368005
0.00370478
0.00372866
0.00375167
0.00377382
0.0037951
0.0038155
0.00383502
0.00385368
0.00387146
0.00388839
0.00390446
0.00391969
0.00393409
0.00394767
0.00396045
0.00397245
0.00398369
0.00399418
0.00400395
0.00401302
0.00402139
0.0040291
0.00403618
0.00404277
0.00404876
0.00405407
0.00405871
0.00406264
0.00406599
0.00406875
0.00407093
0.00407254
0.00407357
0.00407403
0.00407391
0.00407322
0.00407196
0.00407013
0.00406772
0.00406474
0.00406119
0.00405706
0.00405236
0.00404707
0.00404121
0.00403475
0.00402771
0.00402008
0.00401188
0.00400312
0.00399383
0.00398403
0.00397372
0.00396294
0.0039517
0.00394002
0.00392791
0.00391539
0.00390248
0.0038892
0.00387559
0.00386168
0.00384751
0.00383311
0.00381851
0.00380371
0.00378873
0.00377356
0.00375811
0.00374204
0.00372429
0.00370387
7.34557e-08
6.45568e-06
4.24869e-05
9.3429e-05
0.000139103
0.00017216
0.000193099
0.000203424
0.000206314
0.000204251
0.000199047
0.000191959
0.000183833
0.000174864
0.000165992
0.000156902
0.000148103
0.00014034
0.000133784
0.000128624
0.000125448
0.000125339
0.000129034
0.000136618
0.000147723
0.000161536
0.000176931
0.000192679
0.000207403
0.000220036
0.000233065
0.000247803
0.000264115
0.000283312
0.000307154
0.000336217
0.000371005
0.000411161
0.00045646
0.000506389
0.000560542
0.000618333
0.000679097
0.000742017
0.000806341
0.000871477
0.000937017
0.00100268
0.00106783
0.00113282
0.00119746
0.00126149
0.00132473
0.00138712
0.0014486
0.00150915
0.00156876
0.00162746
0.00168525
0.00174217
0.00179822
0.00185338
0.00190781
0.00196156
0.00201471
0.00206731
0.0021195
0.00217151
0.0022232
0.00227445
0.00232526
0.00237563
0.00242556
0.00247505
0.00252404
0.00257243
0.00262024
0.00266738
0.00271381
0.00275949
0.0028044
0.00284849
0.00289176
0.00293421
0.00297586
0.00301675
0.0030569
0.00309635
0.00313513
0.00317327
0.00321077
0.00324768
0.003284
0.00331974
0.0033549
0.0033895
0.00342353
0.00345699
0.00348986
0.00352215
0.00355382
0.00358486
0.00361523
0.00364491
0.00367385
0.00370202
0.00372939
0.00375592
0.00378161
0.00380643
0.00383036
0.00385338
0.00387549
0.00389667
0.00391691
0.00393622
0.00395458
0.003972
0.00398849
0.00400407
0.00401874
0.00403252
0.00404544
0.00405751
0.00406876
0.00407923
0.00408894
0.00409793
0.00410621
0.00411383
0.00412086
0.00412737
0.00413332
0.00413864
0.00414332
0.00414737
0.00415085
0.00415377
0.00415619
0.00415811
0.00415953
0.00416046
0.00416089
0.00416083
0.00416028
0.00415924
0.0041577
0.00415567
0.00415313
0.00415008
0.00414652
0.00414243
0.00413781
0.00413263
0.00412689
0.00412059
0.00411373
0.00410633
0.00409839
0.00408994
0.00408097
0.0040715
0.00406155
0.00405112
0.00404023
0.00402887
0.00401708
0.00400487
0.00399228
0.00397934
0.00396608
0.00395254
0.00393875
0.00392473
0.00391051
0.0038961
0.00388147
0.00386638
0.00384987
0.0038324
1.18215e-07
1.11354e-05
5.79931e-05
0.000115309
0.000161338
0.000192435
0.000209514
0.000216116
0.000215621
0.000210606
0.000202958
0.000193731
0.000184092
0.000174676
0.000165834
0.000158275
0.000151559
0.000147334
0.000145177
0.000145323
0.000148125
0.000153722
0.000161961
0.000172389
0.000184515
0.000197814
0.000211229
0.000223857
0.000236968
0.000252302
0.000269483
0.00028816
0.000310388
0.000336788
0.000367989
0.000404045
0.000444832
0.000489963
0.000539099