/*--------------------------------*- C++ -*----------------------------------*\
  =========                 |
  \\      /  F ield         | OpenFOAM: The Open Source CFD Toolbox
   \\    /   O peration     | Website:  https://openfoam.org
    \\  /    A nd           | Version:  13
     \\/     M anipulation  |
\*---------------------------------------------------------------------------*/
FoamFile
{
    format      ascii;
    class       volScalarField;
    location    "400";
    object      omega;
}
// * * * * * * * * * * * * * * * * * * * * * * * * * * * * * * * * * * * * * //

dimensions      [0 0 -1 0 0 0 0];

internalField   nonuniform List<scalar> 
12225
(
31477.7
41271.3
39483.7
39099.1
38064.7
31477.7
31477.7
31477.7
31477.7
40450.4
37375.5
37050.4
31477.7
40090.5
38730.4
31477.7
31477.7
31477.7
2677.73
7807.19
11723.8
13775.7
15144.2
14427
15470
14871
14734
15623.8
15657.6
15688.9
15603.7
16003.2
16112.9
16001.6
16739.9
16257.9
830.311
1181.23
2266.93
3278.25
4093.16
4945.41
5965.31
6649.94
7179.01
7557.53
7861.6
8080.37
8272.19
8380.64
8491.09
8532.57
8561.64
8583.38
531.832
546.869
729.643
980.63
1245.93
1489.49
1959.37
2411.05
2774.43
2970.94
3187.1
3412.72
3586.24
3702.77
3835.44
3992.7
4094.2
4172.07
457.959
456.37
500.31
547.675
710.608
808.546
962.343
1099.25
1407.04
1626.37
1779.75
1821.72
1874.55
1915.85
1966.48
2007.76
2055.28
2265.8
441.786
442.682
450.491
478.445
583.189
658.853
721.406
836.478
993.148
1114.98
1194.53
1270.34
1292.8
1354.36
1391.86
1412.09
1447.52
1474.99
439.513
436.462
437.176
441.125
482.544
572.466
674.617
737.048
798.903
907.183
993.459
1061.65
1080.32
1081.31
1152.2
1199.66
1213.51
1209.92
439.195
436.644
433.242
433.081
439.73
478.82
548.384
616.424
694.072
724.453
737.009
782.021
839.785
865.888
880.463
883.08
908.576
912.832
439.057
436.77
433.758
430.948
431.395
442.219
474.571
508.028
550.894
584.517
612.926
632.437
654.019
668.853
676.907
678.347
682.624
687.748
438.935
436.927
434.683
431.018
429.672
431.318
441.939
457.12
474.747
491.396
506.183
517.375
526.862
535.035
541.066
546.343
548.967
553.115
438.951
436.831
435.006
431.943
429.134
428.477
430.354
435.305
441.26
447.587
453.425
458.336
462.267
465.604
468.291
470.449
471.877
474.826
438.976
436.796
434.857
432.383
430.707
427.843
427.072
427.636
429.01
430.784
432.48
433.917
435.121
436.059
436.813
437.444
438.009
438.687
438.992
436.786
434.723
432.608
430.736
428.777
427.145
425.991
425.202
424.676
424.232
423.796
423.323
422.871
422.235
421.849
421.032
420.873
438.998
436.779
434.671
432.657
430.742
428.925
427.206
425.65
424.216
422.928
421.695
420.554
419.42
418.378
417.298
416.342
415.315
414.462
439
436.776
434.659
432.655
430.743
428.934
427.208
425.581
424.031
422.573
421.176
419.857
418.588
417.386
416.226
415.127
414.064
413.063
439
436.773
434.656
432.649
430.739
428.926
427.199
425.56
423.996
422.512
421.094
419.746
418.457
417.232
416.059
414.942
413.872
412.854
439
436.772
434.655
432.645
430.734
428.918
427.191
425.548
423.982
422.492
421.072
419.719
418.428
417.197
416.022
414.902
413.831
412.809
438.999
436.769
434.65
432.638
430.725
428.908
427.178
425.533
423.966
422.473
421.052
419.696
418.404
417.171
415.995
414.872
413.801
412.777
439
436.771
434.653
432.642
430.73
428.912
427.184
425.538
423.971
422.478
421.056
419.7
418.408
417.174
415.998
414.875
413.805
412.783
438.999
436.773
434.658
432.644
430.737
428.917
427.195
425.545
423.987
422.486
421.072
419.704
418.417
417.175
416.016
414.907
413.876
412.89
438.973
436.793
434.685
432.673
430.783
429
427.272
425.646
424.079
422.563
421.147
419.715
418.402
417.135
416.114
415.198
414.515
413.907
438.819
436.812
435.396
433.41
431.995
430.665
428.707
427.329
425.408
424.127
422.41
420.875
418.799
417.553
417.416
417.705
418.886
420.292
437.405
439.469
442.889
444.13
447.368
450.249
447.222
445.391
447.724
450.475
445.712
441.594
436.626
440.039
437.91
437.002
440.343
444.832
434.843
470.915
505.458
533.209
557.595
589.12
601.011
591.164
607.714
613.083
613.284
577.44
579.212
576.623
536.318
537.079
518.924
507.637
424.541
499.435
818.065
1114.79
1191.08
1248.91
1273.6
1297.41
1315.02
1296.56
1158.39
1131.71
1102.24
962.124
902.291
881.081
783.204
758.558
0.386242
2196.46
4027.88
4357.98
5185.82
5091.3
5311.77
4971.14
4392.47
3509.87
2704.28
2434.47
2065.96
1794.24
1568.53
1416.04
1381.38
1226.04
0.382588
699.689
14706.7
14109.5
15186.2
13938.8
13690.8
10444.6
9298.49
7725.15
6282.04
4881.25
4169.5
3735.03
3052.06
2545.59
2315.97
2274.64
0.397476
283857
453616
439210
403422
350307
307101
270733
234704
143446
72282.1
35170.7
19637.7
12303.5
8870.53
6870.55
5665.23
5533.44
51282.3
9.51086e+06
4.54458e+06
3.07282e+06
1.66286e+06
1.10496e+06
877244
695078
557558
301696
115452
49989.3
32844
17183.4
11714.1
10003.6
10747
9372.29
18117.5
23047.9
25525.4
26640.1
26870.4
26803.5
26560.4
26177.2
25759.5
25364.4
25010.9
24698.6
24422.4
24173.6
23945.9
23741.9
23543.2
23374.2
11463.2
2514.24
2516.41
2518.61
2520.83
2523.07
2525.32
2527.6
2529.9
2532.22
2534.57
2536.93
2539.31
2541.72
2544.15
2546.6
2549.08
2551.57
2554.09
2556.64
2559.2
2561.79
2564.41
2567.05
2569.71
2572.4
2575.12
2577.86
2580.62
2583.41
2586.23
2589.08
2591.95
2594.85
2597.77
2600.73
2603.71
2606.72
2609.76
2612.82
2615.92
2619.05
2622.2
2625.39
2628.61
2631.86
2635.14
2638.45
2641.79
2645.17
2648.58
2652.02
2655.5
3143.84
3193.85
3150.06
3133.26
3135.32
2677.08
2680.8
3269.57
2688.35
3172.29
3319.8
3412.5
3488.31
3576.2
3649.7
3725.59
3796.71
3866.88
3934.16
4000.43
4064.47
4127.49
4188.78
4249.05
4307.88
4365.73
4422.32
4477.98
4532.5
4586.13
4638.69
4690.4
4741.05
4790.86
4839.61
4887.5
4934.38
4980.37
5025.34
5069.32
5112.28
5154.17
5195
5234.68
5273.22
5310.61
5346.98
5382.68
5417.16
5450.75
5483.67
5515.89
5547.38
5578.19
5608.29
5637.71
5666.4
5694.42
5721.7
5748.31
5774.15
5799.29
5823.64
5847.25
5870.04
5892.04
5913.19
5933.47
5952.83
5971.23
5988.66
6005.06
6020.42
6034.59
6047.54
6058.94
6068.55
6075.49
6090.36
6095.97
6102
6109.49
6117.27
6119.99
6124.03
6125.25
6125.16
6123.69
6120.6
6116.74
6111.11
6105
6097.02
6088.79
6078.61
6068.44
6056.24
6044.28
6030.25
6016.7
6001.04
5986.09
5969.07
5952.91
5934.85
5917.44
5898.71
5880.21
5861.65
5843.06
5824.62
5806.29
5788.21
5770.36
5752.86
5735.73
5719.09
5702.94
5687.3
5672.12
5657.21
5642.18
5626.25
5608.62
5586.49
5555.02
5432.29
11463.2
1993.69
991.423
801.229
680.553
613.314
618.701
614.619
602.557
580.27
556.994
533.683
513.089
496.481
485.547
478.106
479.205
479.815
513.235
565.246
652.611
755.805
865.56
973.153
1065.71
1137.65
1167.28
1154.03
1113.81
1017.5
893.587
739.893
624.296
549.422
487.733
454.411
449.892
457.687
478.682
511.039
542.242
580.461
664.027
790.978
978.358
1277
1589.87
1813.73
1956.65
2031.55
2054.91
2048.68
2015.94
2003.29
1929.94
1868.38
1821.69
1771.36
1705.96
1684.29
1671.77
1638.01
1651.31
1643.58
1639.93
1638.26
1637.64
1638.61
1642.14
1646.16
1651.45
1657.2
1663.71
1670.5
1677.74
1685.13
1692.77
1700.49
1708.33
1716.19
1724.1
1731.99
1739.86
1747.68
1755.44
1763.11
1770.71
1778.2
1785.62
1792.86
1799.98
1806.92
1813.74
1820.44
1827.04
1833.58
1840.18
1846.95
1854.2
1862.37
1872.01
1881.07
1890.03
1898.86
1907.51
1916.02
1924.34
1932.52
1940.5
1948.32
1955.94
1963.37
1970.58
1977.6
1984.38
1990.95
1997.27
2003.35
2009.17
2014.72
2020
2025
2029.72
2034.15
2038.31
2042.15
2045.7
2048.91
2051.83
2054.44
2056.95
2059.76
2061.57
2063.5
2065.24
2066.92
2067.91
2069
2069.18
2068.9
2067.84
2066.71
2064.06
2063.25
2059.9
2058.81
2054.79
2053.43
2048.84
2047.18
2042.11
2040.15
2034.71
2032.44
2026.72
2024.1
2018.31
2015.15
2009.48
2005.5
2000.63
1995.86
1991.14
1986.39
1981.67
1977
1972.38
1967.83
1963.37
1959.02
1954.79
1950.7
1946.72
1942.94
1939.41
1936.19
1933.42
1931.61
1929.94
1938.01
11463.2
2004.23
809.644
628.904
663.468
663.332
636.737
582.015
523.174
468.373
419.694
379.769
348.273
323.567
304.625
290.097
280.209
272.371
271.424
274.356
285.493
305.926
339.639
384.898
439.909
500.317
558.42
603.526
628.209
621.824
602.565
552.672
491.618
425.492
378.655
373.702
384.316
407.374
441.822
509.786
615.942
761.006
951.773
1131.47
1279.92
1410.15
1513.12
1541.69
1543.6
1500.87
1448.12
1387.82
1330.59
1280.23
1232.36
1194.99
1165.7
1140.28
1121.3
1108.66
1100
1091.67
1088.86
1084.7
1084.21
1083.99
1084.9
1086.75
1089.22
1092.12
1095.44
1099.02
1102.87
1106.89
1111.06
1115.34
1119.71
1124.14
1128.63
1133.15
1137.69
1142.23
1146.77
1151.3
1155.82
1160.3
1164.77
1169.2
1173.6
1177.95
1182.25
1186.51
1190.76
1195
1199.26
1203.57
1207.97
1212.51
1217.27
1222.25
1227.32
1232.22
1237.05
1241.79
1246.42
1250.97
1255.4
1259.74
1263.95
1268.05
1272.02
1275.87
1279.58
1283.15
1286.57
1289.86
1292.97
1295.94
1298.73
1301.36
1303.81
1306.09
1308.2
1310.14
1311.9
1313.47
1314.87
1316.09
1317.16
1318.06
1318.86
1319.53
1319.96
1320.3
1320.52
1320.63
1320.28
1319.95
1319.28
1318.43
1317.34
1316.08
1314.56
1313.19
1311.34
1309.76
1307.61
1305.83
1303.41
1301.46
1298.78
1296.67
1293.77
1291.53
1288.4
1285.98
1282.75
1280.12
1276.85
1273.98
1270.87
1267.77
1264.67
1261.56
1258.47
1255.38
1252.32
1249.29
1246.3
1243.35
1240.47
1237.67
1234.95
1232.4
1230.06
1228.07
1226.6
1226.31
1227.58
1237.71
11463.2
2037.39
1001.26
952.106
879.547
753.937
639.758
535.508
453.362
392.348
346.583
310.323
282.348
261.026
244.833
232.56
223.413
216.755
212.369
210.979
212.172
215.587
224.433
239.322
261.411
290.55
324.815
359.532
389.06
410.65
413.564
405.6
383.187
384.972
425.174
510.381
572.245
625.187
692.023
789.065
921.391
1042.53
1122.06
1189.94
1247.68
1269.47
1242.11
1198.18
1155.7
1102.29
1056.55
1013.97
979.184
950.102
926.705
908.582
894.713
883.818
876.313
871.008
867.96
865.26
864.609
864.223
865.217
866.611
868.549
870.878
873.51
876.382
879.459
882.693
886.063
889.537
893.101
896.735
900.426
904.162
907.932
911.726
915.536
919.355
923.176
926.994
930.804
934.603
938.39
942.162
945.918
949.646
953.354
957.047
960.735
964.429
968.14
971.879
975.658
979.486
983.36
987.251
991.097
994.856
998.542
1002.15
1005.68
1009.12
1012.46
1015.72
1018.88
1021.93
1024.88
1027.72
1030.44
1033.05
1035.53
1037.89
1040.12
1042.22
1044.18
1046.01
1047.7
1049.25
1050.66
1051.94
1053.07
1054.06
1054.91
1055.63
1056.21
1056.66
1056.99
1057.19
1057.25
1057.18
1056.99
1056.66
1056.12
1055.47
1054.64
1053.66
1052.54
1051.27
1049.87
1048.39
1046.74
1045.06
1043.19
1041.31
1039.23
1037.18
1034.9
1032.69
1030.25
1027.91
1025.31
1022.84
1020.14
1017.55
1014.76
1012.05
1009.26
1006.46
1003.64
1000.82
997.998
995.182
992.376
989.588
986.824
984.092
981.405
978.777
976.232
973.817
971.596
969.671
968.198
967.72
968.697
974.98
11463.2
2307.37
1437.45
1156.43
918.893
711.112
548.162
439.118
365.096
313.353
276.313
250.349
231.417
217.097
205.991
197.345
190.754
185.956
182.76
181.275
181.554
182.962
186.893
193.906
204.969
221.057
242.092
265.688
289.061
307.485
321.817
347.297
408.631
510.241
594.935
659.717
726.412
800.211
872.433
937.019
993.031
1041.13
1075.02
1084.92
1059.97
1014.35
980.227
938.601
902.289
867.587
839.687
815.621
796.648
781.378
769.699
760.887
754.493
749.969
747.429
745.785
745.407
745.589
746.683
748.265
750.365
752.773
755.469
758.388
761.485
764.731
768.1
771.572
775.13
778.761
782.453
786.196
789.979
793.794
797.634
801.491
805.358
809.23
813.102
816.968
820.826
824.674
828.508
832.33
836.131
839.912
843.667
847.408
851.136
854.859
858.577
862.294
866.007
869.711
873.391
877.033
880.607
884.105
887.527
890.868
894.126
897.293
900.372
903.352
906.237
909.019
911.698
914.263
916.719
919.058
921.282
923.383
925.365
927.221
928.954
930.561
932.042
933.396
934.621
935.72
936.688
937.53
938.24
938.826
939.282
939.615
939.813
939.873
939.835
939.651
939.334
938.882
938.268
937.525
936.63
935.601
934.443
933.147
931.732
930.203
928.547
926.791
924.909
922.945
920.858
918.699
916.42
914.089
911.643
909.163
906.57
903.961
901.247
898.526
895.716
892.901
890.04
887.156
884.256
881.344
878.427
875.512
872.603
869.706
866.828
863.978
861.167
858.417
855.748
853.194
850.807
848.672
846.914
845.911
846.135
849.298
11463.2
2889.41
1696.15
1181.24
816.101
575.898
434.452
348.068
294.836
260.187
236.019
218.187
204.494
193.753
185.183
178.343
173.036
169.128
166.555
165.413
165.691
167.034
170.224
175.509
183.311
195.121
211.547
232.651
259.872
300.279
356.089
445.749
553.707
639.618
704.694
765.161
817.38
858.113
893.023
926.515
946.728
950.897
925.589
895.47
865.169
831.737
803.028
774.544
751.024
730.502
714.038
700.518
690.058
682.042
676.253
672.248
669.928
668.876
668.678
669.331
670.711
672.653
675.072
677.842
680.904
684.185
687.647
691.257
694.988
698.821
702.74
706.735
710.793
714.906
719.066
723.264
727.493
731.745
736.014
740.292
744.573
748.852
753.124
757.385
761.631
765.859
770.069
774.256
778.42
782.551
786.652
790.724
794.77
798.791
802.788
806.756
810.691
814.582
818.422
822.198
825.896
829.511
833.038
836.475
839.816
843.06
846.202
849.238
852.167
854.985
857.689
860.276
862.746
865.097
867.327
869.435
871.421
873.283
875.02
876.634
878.125
879.491
880.731
881.845
882.832
883.692
884.424
885.029
885.506
885.856
886.055
886.123
886.071
885.876
885.542
885.063
884.434
883.662
882.741
881.678
880.476
879.133
877.656
876.045
874.302
872.431
870.434
868.327
866.101
863.771
861.331
858.8
856.172
853.469
850.678
847.827
844.899
841.925
838.888
835.817
832.706
829.566
826.404
823.228
820.045
816.862
813.683
810.514
807.363
804.237
801.148
798.115
795.156
792.302
789.595
787.102
784.92
783.307
782.604
783.639
11463.2
3383.07
1742.72
1017.03
638.795
448.79
352.607
298.068
263.367
238.632
220.022
205.604
194.039
184.476
176.534
170.029
164.902
161.137
158.837
158.114
158.838
161.179
165.757
172.927
183.692
198.288
219.661
252.833
305.256
386.831
492.332
582.524
649.442
706.917
753.102
788.113
816.205
839.207
849.394
849.397
828.59
806.62
781.75
756.962
732.741
709.478
689.291
671.282
656.492
644.149
634.356
626.705
621.061
617.109
614.829
613.889
613.758
614.626
616.234
618.475
621.224
624.398
627.905
631.674
635.654
639.8
644.082
648.477
652.966
657.536
662.175
666.875
671.627
676.424
681.259
686.124
691.012
695.915
700.826
705.737
710.642
715.536
720.412
725.267
730.096
734.897
739.667
744.405
749.103
753.76
758.371
762.937
767.46
771.939
776.372
780.755
785.086
789.355
793.557
797.675
801.701
805.629
809.454
813.174
816.783
820.279
823.658
826.919
830.057
833.073
835.961
838.724
841.358
843.867
846.246
848.499
850.622
852.618
854.484
856.221
857.827
859.303
860.651
861.867
862.954
863.907
864.73
865.417
865.972
866.389
866.657
866.763
866.739
866.567
866.247
865.77
865.137
864.347
863.398
862.293
861.033
859.617
858.05
856.331
854.462
852.443
850.268
847.955
845.509
842.936
840.242
837.435
834.522
831.514
828.415
825.234
821.977
818.656
815.274
811.845
808.375
804.87
801.341
797.795
794.241
790.686
787.134
783.593
780.069
776.571
773.11
769.703
766.368
763.129
760.023
757.102
754.436
752.208
750.584
750.009
11463.2
3529.28
1542.12
805.226
507.792
376.065
308.124
268.287
242.513
224.643
211.098
199.685
189.711
181.058
173.685
167.638
163.1
160.232
159.017
159.376
161.457
165.829
173.278
185.081
204.027
233.327
277.737
347.557
436.097
519.096
583.359
637.067
682.125
718.304
747.411
767.137
774.72
769.935
754.104
737.473
717.471
698.361
679.118
660.628
643.168
627.402
613.884
602.386
593.024
585.522
579.808
575.695
573.144
572.004
571.78
572.561
574.177
576.534
579.497
582.973
586.864
591.101
595.615
600.352
605.27
610.333
615.518
620.803
626.173
631.616
637.12
642.678
648.281
653.922
659.595
665.291
671.001
676.717
682.43
688.131
693.815
699.474
705.102
710.695
716.247
721.756
727.221
732.635
737.994
743.293
748.53
753.703
758.811
763.855
768.829
773.733
778.562
783.313
787.968
792.519
796.956
801.275
805.472
809.542
813.482
817.291
820.966
824.504
827.905
831.168
834.29
837.274
840.118
842.824
845.394
847.827
850.123
852.285
854.31
856.199
857.955
859.575
861.058
862.403
863.609
864.674
865.597
866.375
867.01
867.496
867.824
867.965
867.955
867.791
867.462
866.963
866.292
865.445
864.424
863.226
861.853
860.304
858.582
856.686
854.62
852.384
849.983
847.427
844.721
841.87
838.882
835.765
832.528
829.182
825.733
822.191
818.565
814.864
811.099
807.279
803.414
799.512
795.582
791.633
787.674
783.713
779.756
775.81
771.881
767.98
764.118
760.308
756.57
752.924
749.399
746.038
742.891
740.062
737.63
735.708
11463.2
3372.18
1270.53
653.547
438.009
343.111
291.739
260.311
239.015
223.105
210.574
200.217
191.398
183.793
177.415
172.468
169.244
167.969
168.839
172.05
178.162
188.71
205.432
231.128
272.764
330.705
399.222
464.722
522.443
571.779
613.363
648.104
677.848
699.621
708.037
706.293
694.207
680.954
665.164
650.015
634.813
620.386
606.297
592.969
580.768
570.093
561.082
553.674
547.837
543.458
540.446
538.908
538.431
538.879
540.285
542.522
545.484
549.076
553.204
557.788
562.752
568.035
573.58
579.339
585.275
591.358
597.562
603.871
610.265
616.729
623.252
629.823
636.432
643.068
649.726
656.402
663.078
669.746
676.397
683.022
689.611
696.159
702.66
709.106
715.494
721.814
728.055
734.228
740.33
746.357
752.303
758.167
763.946
769.639
775.239
780.743
786.143
791.43
796.595
801.631
806.532
811.29
815.904
820.367
824.68
828.839
832.845
836.693
840.386
843.922
847.305
850.531
853.607
856.532
859.312
861.943
864.432
866.775
868.976
871.034
872.949
874.72
876.345
877.824
879.152
880.33
881.351
882.219
882.925
883.472
883.845
884.013
884.004
883.83
883.472
882.928
882.189
881.256
880.125
878.796
877.267
875.54
873.614
871.492
869.175
866.667
863.972
861.099
858.052
854.842
851.473
847.958
844.306
840.529
836.635
832.637
828.545
824.372
820.127
815.823
811.47
807.077
802.653
798.209
793.756
789.3
784.848
780.409
775.992
771.604
767.259
762.969
758.751
754.625
750.613
746.749
743.07
739.671
736.565
733.585
11463.2
2961.83
1026.89
556.02
394.271
321.042
282.075
257.242
240.112
227.549
217.488
208.969
201.679
195.668
191.188
189.002
189.037
192.514
199.22
209.789
225.907
250.076
284.004
327.749
376.261
425.888
472.897
514.959
552.069
583.616
611.188
635.003
646.615
648.542
642.232
632.742
620.421
608.34
596.371
585.112
574.175
563.632
553.458
543.986
535.526
528.302
522.378
517.738
514.345
512.269
511.42
511.398
512.431
514.356
517.114
520.621
524.793
529.55
534.818
540.529
546.621
553.038
559.726
566.638
573.737
580.992
588.377
595.884
603.482
611.148
618.866
626.623
634.402
642.184
649.942
657.649
665.344
673.025
680.68
688.297
695.868
703.385
710.842
718.233
725.551
732.793
739.958
747.034
754.009
760.876
767.631
774.271
780.793
787.193
793.467
799.606
805.604
811.456
817.155
822.696
828.072
833.278
838.308
843.163
847.838
852.334
856.651
860.788
864.747
868.529
872.137
875.574
878.845
881.955
884.907
887.703
890.346
892.838
895.179
897.37
899.411
901.3
903.035
904.614
906.033
907.29
908.38
909.301
910.047
910.617
910.996
911.158
911.119
910.895
910.47
909.836
908.988
907.921
906.634
905.123
903.389
901.43
899.247
896.842
894.217
891.376
888.324
885.07
881.621
877.984
874.17
870.191
866.056
861.781
857.376
852.856
848.232
843.52
838.731
833.879
828.975
824.028
819.048
814.048
809.037
804.025
799.02
794.031
789.067
784.139
779.257
774.434
769.687
765.03
760.486
756.079
751.837
747.832
744.053
740.092
11463.2
2495.82
881.963
513.265
379.089
316.827
282.677
262.549
249.179
239.352
231.616
225.429
220.8
218.473
218.274
221.458
228.586
239.112
252.747
271.803
297.093
327.919
362.625
398.942
434.687
468.622
499.784
527.222
551.854
574.738
589.294
594.014
593.042
588.085
580.019
571.027
561.808
553.119
544.794
536.793
528.948
521.313
514.041
507.408
501.65
496.916
493.26
490.683
489.358
488.987
489.556
491.071
493.504
496.786
500.857
505.647
511.083
517.097
523.624
530.603
537.986
545.739
553.781
562.065
570.551
579.198
587.955
596.744
605.59
614.509
623.491
632.515
641.562
650.608
659.64
668.66
677.638
686.571
695.444
704.241
712.955
721.581
730.115
738.554
746.89
755.114
763.218
771.192
779.031
786.73
794.284
801.689
808.942
816.038
822.971
829.732
836.317
842.717
848.929
854.945
860.76
866.37
871.769
876.957
881.932
886.698
891.252
895.601
899.742
903.684
907.426
910.981
914.354
917.556
920.587
923.456
926.163
928.714
931.108
933.347
935.431
937.358
939.126
940.73
942.169
943.435
944.526
945.432
946.154
946.681
947.001
947.091
946.964
946.626
946.071
945.287
944.267
943.006
941.501
939.747
937.744
935.49
932.986
930.233
927.236
923.997
920.524
916.823
912.905
908.778
904.454
899.945
895.264
890.426
885.446
880.34
875.123
869.812
864.419
858.96
853.445
847.887
842.295
836.682
831.058
825.435
819.822
814.229
808.668
803.149
797.682
792.28
786.957
781.727
776.608
771.622
766.789
762.166
757.735
752.883
11463.2
2085.29
780.614
479.753
369.889
317.401
289.943
273.845
263.508
256.416
251.454
248.616
247.754
249.338
254.354
262.885
274.608
289.057
307.067
328.653
353.052
379.148
405.768
431.891
456.771
479.505
500.626
520.679
536.105
543.458
545.32
544.928
541.234
535.857
529.654
523.402
517.322
511.488
505.775
500.124
494.533
489.125
484.096
479.672
476.035
473.296
471.626
470.986
471.209
472.429
474.579
477.634
481.562
486.325
491.907
498.22
505.18
512.725
520.788
529.298
538.154
547.242
556.643
566.338
576.29
586.459
596.809
607.333
617.976
628.68
639.409
650.141
660.847
671.478
682.01
692.431
702.721
712.867
722.876
732.761
742.527
752.178
761.715
771.136
780.434
789.595
798.607
807.458
816.14
824.644
832.966
841.101
849.045
856.792
864.333
871.66
878.766
885.643
892.288
898.693
904.854
910.764
916.42
921.822
926.973
931.875
936.533
940.95
945.13
949.077
952.798
956.31
959.625
962.756
965.71
968.493
971.108
973.563
975.86
978.001
979.985
981.812
983.478
984.981
986.317
987.475
988.453
989.239
989.829
990.211
990.375
990.3
989.987
989.445
988.672
987.651
986.376
984.838
983.033
980.957
978.608
975.984
973.084
969.912
966.469
962.762
958.796
954.581
950.126
945.443
940.543
935.441
930.149
924.686
919.07
913.319
907.451
901.483
895.431
889.308
883.129
876.905
870.647
864.369
858.081
851.795
845.524
839.281
833.077
826.922
820.827
814.804
808.864
803.021
797.29
791.693
786.242
780.985
775.917
770.236
11463.2
1951.21
762.913
476.545
372.21
325.647
301.954
288.75
280.948
276.495
274.557
274.31
276.532
281.594
289.484
299.979
312.809
327.915
345.077
363.677
383.157
402.744
421.75
439.759
457.112
474.069
488.268
497.308
501.61
503.101
503.175
501.483
498.519
494.967
491.191
487.396
483.614
479.825
476.006
472.189
468.47
465.009
461.987
459.583
458.037
457.419
457.633
458.905
461.185
464.389
468.484
473.445
479.227
485.753
492.861
500.617
509.066
518.172
527.877
538.124
548.869
560.095
571.705
583.65
595.882
608.352
621.001
633.788
646.662
659.507
672.251
684.827
697.186
709.316
721.198
732.826
744.199
755.333
766.259
777.016
787.625
798.1
808.454
818.689
828.794
838.747
848.527
858.118
867.505
876.676
885.63
894.358
902.856
911.114
919.122
926.869
934.347
941.549
948.467
955.097
961.431
967.463
973.19
978.611
983.734
988.563
993.111
997.381
1001.38
1005.11
1008.58
1011.81
1014.83
1017.66
1020.3
1022.76
1025.05
1027.18
1029.16
1030.98
1032.65
1034.16
1035.52
1036.73
1037.78
1038.65
1039.34
1039.85
1040.16
1040.25
1040.12
1039.73
1039.08
1038.22
1037.1
1035.73
1034.08
1032.16
1029.95
1027.45
1024.66
1021.57
1018.19
1014.51
1010.54
1006.28
1001.75
996.946
991.883
986.575
981.033
975.275
969.309
963.161
956.851
950.401
943.83
937.154
930.39
923.554
916.66
909.723
902.752
895.762
888.762
881.77
874.799
867.865
860.978
854.15
847.389
840.708
834.115
827.624
821.251
815.014
808.924
803.019
797.321
790.858
11463.2
1861.46
735.268
473.131
379.088
337.047
316.231
305.183
299.306
296.671
296.047
297.649
301.816
308.234
316.682
326.859
338.506
351.366
365.094
379.266
393.435
407.341
421.132
434.871
446.761
455.219
461.059
464.93
467.05
467.901
468.045
467.358
466.113
464.566
462.839
460.991
459.05
457.049
455.054
453.18
451.609
450.628
450.225
450.42
451.455
453.355
456.048
459.434
463.483
468.453
474.383
481.266
489.073
497.773
507.384
517.849
529.117
541.13
553.811
567.087
580.898
595.185
609.848
624.81
640.025
655.44
670.902
686.288
701.478
716.418
731.034
745.254
759.025
772.32
785.133
797.468
809.343
820.82
831.999
843.004
853.875
864.628
875.302
885.904
896.404
906.763
916.942
926.916
936.66
946.162
955.418
964.423
973.167
981.635
989.814
997.694
1005.26
1012.51
1019.42
1026
1032.23
1038.1
1043.61
1048.76
1053.55
1058
1062.13
1065.95
1069.46
1072.69
1075.64
1078.33
1080.79
1083.03
1085.06
1086.9
1088.55
1090.04
1091.37
1092.55
1093.58
1094.47
1095.22
1095.82
1096.3
1096.6
1096.74
1096.71
1096.52
1096.11
1095.45
1094.55
1093.43
1092.06
1090.45
1088.56
1086.4
1083.95
1081.2
1078.15
1074.8
1071.13
1067.16
1062.87
1058.28
1053.39
1048.2
1042.73
1036.98
1030.98
1024.73
1018.25
1011.55
1004.66
997.607
990.41
983.087
975.657
968.136
960.542
952.889
945.194
937.469
929.727
921.975
914.238
906.534
898.877
891.275
883.742
876.285
868.916
861.641
854.474
847.433
840.536
833.793
827.227
820.904
813.697
11463.2
1846.54
735.785
480.192
390.192
350.474
330.977
320.794
315.631
313.522
313.206
315.345
319.724
325.852
333.339
341.847
351.168
361.079
371.331
381.71
392.361
402.908
412.05
419.447
425.477
430.579
434.619
437.755
440.193
442.122
443.7
444.989
446.174
447.108
447.858
448.476
449.024
449.568
450.185
450.936
451.824
452.785
454.354
456.731
460.143
464.745
470.372
477.062
484.849
493.7
503.631
514.644
526.691
539.725
553.722
568.62
584.422
601.016
618.215
635.894
653.944
672.259
690.725
709.229
727.638
745.816
763.715
781.241
798.284
814.741
830.505
845.472
859.597
872.899
885.417
897.191
908.199
918.586
928.588
938.608
948.624
958.601
968.65
978.785
988.91
998.937
1008.81
1018.48
1027.94
1037.15
1046.13
1054.84
1063.29
1071.45
1079.33
1086.9
1094.15
1101.06
1107.61
1113.79
1119.58
1124.98
1129.97
1134.53
1138.68
1142.44
1145.82
1148.85
1151.52
1153.88
1155.93
1157.67
1159.12
1160.36
1161.37
1162.16
1162.75
1163.17
1163.43
1163.56
1163.55
1163.43
1163.17
1162.79
1162.36
1161.71
1160.96
1160.05
1159
1157.76
1156.31
1154.65
1152.77
1150.65
1148.28
1145.65
1142.75
1139.56
1136.09
1132.31
1128.22
1123.82
1119.11
1114.08
1108.73
1103.08
1097.13
1090.88
1084.35
1077.55
1070.5
1063.22
1055.74
1048.07
1040.23
1032.25
1024.14
1015.91
1007.6
999.207
990.759
982.271
973.756
965.23
956.698
948.193
939.733
931.332
922.993
914.73
906.555
898.477
890.501
882.644
874.924
867.357
859.95
852.717
845.771
837.857
11463.7
1820.55
734.396
488.253
400.502
362.013
343.376
333.275
327.821
325.482
324.984
326.665
330.293
335.315
341.298
347.979
355.239
362.976
371.01
378.813
386.306
393.278
400.038
406.361
412.295
417.918
423.221
428.239
432.99
437.429
441.532
445.193
448.192
451.03
453.822
456.639
459.569
462.697
466.13
469.977
474.389
479.615
485.735
492.957
501.547
511.644
522.886
535.317
548.934
563.702
579.638
596.837
615.126
634.299
654.211
674.71
695.588
716.717
738.021
759.392
780.706
801.857
822.741
843.266
863.34
882.881
901.825
920.107
937.654
954.38
970.181
984.87
998.445
1011.04
1022.78
1033.72
1043.93
1053.44
1062.35
1070.83
1078.99
1087.04
1095.45
1104.24
1113.11
1121.9
1130.54
1138.99
1147.23
1155.26
1163.07
1170.64
1177.98
1185.08
1191.92
1198.48
1204.73
1210.64
1216.21
1221.4
1226.2
1230.57
1234.49
1237.94
1240.92
1243.44
1245.52
1247.24
1248.54
1249.43
1249.95
1250.07
1249.9
1249.61
1249.03
1248.24
1247.26
1246.13
1244.88
1243.53
1242.08
1240.54
1238.91
1237.21
1235.43
1233.55
1231.57
1229.46
1227.23
1224.85
1222.3
1219.56
1216.63
1213.48
1210.1
1206.48
1202.62
1198.49
1194.08
1189.39
1184.41
1179.11
1173.52
1167.61
1161.39
1154.87
1148.05
1140.94
1133.55
1125.89
1117.98
1109.83
1101.49
1092.96
1084.27
1075.42
1066.44
1057.35
1048.16
1038.9
1029.58
1020.23
1010.86
1001.48
992.136
982.843
973.608
964.439
955.344
946.335
937.421
928.615
919.92
911.355
902.942
894.692
886.611
878.7
871.125
862.537
11462.8
1807.28
736.767
494.227
407.491
369.861
351.44
341.117
335.386
332.835
332.186
333.534
336.756
341.324
346.864
353.115
359.908
367.046
374.405
382.187
390.028
397.728
405.374
412.944
420.482
428.024
435.583
443.189
450.83
458.368
465.866
473.361
481.056
488.919
497.022
505.44
514.268
523.597
533.548
544.252
555.858
568.515
582.241
597.083
613.011
629.834
647.791
666.935
687.191
708.484
730.777
753.894
777.558
801.62
825.901
850.205
874.329
898.104
921.393
944.078
966.072
987.32
1007.78
1027.41
1046.21
1064.15
1081.24
1097.47
1112.86
1127.39
1141.06
1153.9
1165.77
1176.78
1187.09
1196.76
1205.89
1214.36
1222.16
1229.14
1235.56
1241.82
1248.48
1255.16
1261.71
1268.07
1274.26
1280.25
1286.08
1291.75
1297.26
1302.61
1307.78
1312.77
1317.54
1322.08
1326.34
1330.3
1333.94
1337.22
1340.12
1342.6
1344.63
1346.17
1347.23
1347.8
1347.89
1347.72
1347.09
1346.05
1344.64
1342.86
1340.85
1338.61
1336.18
1333.59
1330.86
1328.03
1325.12
1322.14
1319.12
1316.07
1312.97
1309.84
1306.67
1303.45
1300.17
1296.81
1293.35
1289.78
1286.08
1282.23
1278.21
1274.01
1269.6
1264.98
1260.14
1255.06
1249.73
1244.14
1238.27
1232.12
1225.68
1218.94
1211.92
1204.6
1197
1189.13
1180.98
1172.57
1163.91
1155.02
1145.91
1136.61
1127.14
1117.5
1107.74
1097.85
1087.87
1077.82
1067.71
1057.56
1047.4
1037.24
1027.12
1017.07
1007.07
997.135
987.28
977.516
967.856
958.312
948.91
939.665
930.582
921.671
912.936
904.368
896.178
886.98
11461.8
1796.57
738.763
497.146
411.03
375.181
357.154
347.17
342.384
340.592
340.497
342.984
347.18
352.71
359.28
367.069
375.971
385.017
394.732
405.482
417.082
428.97
441.269
454.13
467.566
481.562
496.076
511.054
526.418
542.235
558.553
575.381
592.778
610.603
628.83
647.463
666.536
686.115
706.313
727.342
749.169
771.792
795.16
819.191
843.779
868.865
894.815
921.77
949.2
976.825
1004.3
1031.22
1057.53
1083.15
1107.89
1131.57
1154.06
1175.3
1195.23
1213.84
1231.15
1247.18
1262
1275.65
1288.22
1299.76
1310.36
1320.09
1329.02
1337.2
1344.72
1351.87
1358.78
1365.37
1371.54
1377.22
1382.37
1386.81
1390.86
1394.69
1398.61
1402.77
1406.59
1409.83
1412.7
1415.33
1417.82
1420.23
1422.6
1424.94
1427.24
1429.49
1431.66
1433.72
1435.65
1437.44
1439.03
1440.4
1441.5
1442.31
1442.81
1442.9
1442.57
1441.8
1440.6
1438.97
1436.97
1434.61
1431.88
1428.81
1425.43
1421.78
1417.92
1413.89
1409.73
1405.47