/*--------------------------------*- C++ -*----------------------------------*\
  =========                 |
  \\      /  F ield         | OpenFOAM: The Open Source CFD Toolbox
   \\    /   O peration     | Website:  https://openfoam.org
    \\  /    A nd           | Version:  13
     \\/     M anipulation  |
\*---------------------------------------------------------------------------*/
FoamFile
{
    format      ascii;
    class       volScalarField;
    location    "400";
    object      p;
}
// * * * * * * * * * * * * * * * * * * * * * * * * * * * * * * * * * * * * * //

dimensions      [0 2 -2 0 0 0 0];

internalField   nonuniform List<scalar> 
12225
(
-4.30281
-5.18068
-5.57155
-5.7057
-5.84005
-5.9858
-6.10733
-6.20408
-6.28621
-6.35985
-6.42954
-6.49176
-6.55276
-6.6199
-6.68971
-6.76389
-6.84726
-6.94908
-4.56462
-5.20599
-5.53909
-5.67365
-5.80768
-5.95231
-6.07465
-6.17075
-6.25219
-6.32813
-6.39985
-6.46638
-6.53132
-6.59984
-6.67403
-6.748
-6.81947
-6.87494
-4.77684
-5.20379
-5.5259
-5.68626
-5.82234
-5.96143
-6.08118
-6.17553
-6.25587
-6.33182
-6.40343
-6.47086
-6.53574
-6.60151
-6.66952
-6.73532
-6.79528
-6.84029
-4.9184
-5.22077
-5.53005
-5.7001
-5.82849
-5.95696
-6.07186
-6.16542
-6.24593
-6.32144
-6.39289
-6.46046
-6.52492
-6.58835
-6.65185
-6.71269
-6.7675
-6.80984
-5.03589
-5.27197
-5.54195
-5.70954
-5.83259
-5.95416
-6.06608
-6.15978
-6.24059
-6.31557
-6.38656
-6.45357
-6.51697
-6.57817
-6.63818
-6.69532
-6.74655
-6.78716
-5.14084
-5.32575
-5.55379
-5.71612
-5.83707
-5.95329
-6.06151
-6.15405
-6.23434
-6.3084
-6.37832
-6.44416
-6.50627
-6.56568
-6.6231
-6.67722
-6.72551
-6.76495
-5.23606
-5.37553
-5.57171
-5.72634
-5.8442
-5.95442
-6.05798
-6.14865
-6.22823
-6.30144
-6.37037
-6.43521
-6.49633
-6.55436
-6.6096
-6.66102
-6.70687
-6.74529
-5.32257
-5.4276
-5.59563
-5.73968
-5.85275
-5.95697
-6.05569
-6.14402
-6.22248
-6.29466
-6.3625
-6.42625
-6.48617
-6.54263
-6.59573
-6.64475
-6.6886
-6.72609
-5.40054
-5.48084
-5.62246
-5.75422
-5.86178
-5.96054
-6.05458
-6.14025
-6.21733
-6.28837
-6.355
-6.41753
-6.47611
-6.53099
-6.58219
-6.62926
-6.67151
-6.7082
-5.47044
-5.53259
-5.65066
-5.76961
-5.8712
-5.96477
-6.05429
-6.13714
-6.21258
-6.28227
-6.34753
-6.40871
-6.46588
-6.5192
-6.56868
-6.61403
-6.65487
-6.69075
-5.53324
-5.5817
-5.67983
-5.78621
-5.88141
-5.96982
-6.05481
-6.13453
-6.20795
-6.27603
-6.33978
-6.39948
-6.45519
-6.50699
-6.55489
-6.59872
-6.63832
-6.67343
-5.58507
-5.62415
-5.70718
-5.80255
-5.89155
-5.9752
-6.05598
-6.13257
-6.20382
-6.27019
-6.33238
-6.39063
-6.44496
-6.4954
-6.54197
-6.58456
-6.62317
-6.65759
-5.63142
-5.66365
-5.73408
-5.81926
-5.90206
-5.98101
-6.05764
-6.13099
-6.1999
-6.26441
-6.32495
-6.38168
-6.43461
-6.48373
-6.52905
-6.57053
-6.60822
-6.64203
-5.67848
-5.70494
-5.76375
-5.83845
-5.9143
-5.98797
-6.05999
-6.12962
-6.19572
-6.25798
-6.31652
-6.37147
-6.42277
-6.47041
-6.51438
-6.55468
-6.59145
-6.62459
-5.72431
-5.746
-5.79468
-5.85927
-5.92772
-5.99573
-6.06288
-6.12845
-6.19136
-6.251
-6.30729
-6.3602
-6.40969
-6.4557
-6.49824
-6.53734
-6.57313
-6.60562
-5.7662
-5.78404
-5.82443
-5.87999
-5.94117
-6.0035
-6.06579
-6.12722
-6.18671
-6.24355
-6.29739
-6.34815
-6.3957
-6.44003
-6.4811
-6.51899
-6.5538
-6.5856
-5.80011
-5.81509
-5.8493
-5.89761
-5.9525
-6.00969
-6.06758
-6.12517
-6.18142
-6.2355
-6.28696
-6.33559
-6.38127
-6.42394
-6.4636
-6.5003
-6.53417
-6.56527
-5.82008
-5.83326
-5.86367
-5.90738
-5.95801
-6.01157
-6.06629
-6.12105
-6.17481
-6.22669
-6.2762
-6.32306
-6.36714
-6.40837
-6.44678
-6.48242
-6.51542
-6.54588
-5.81633
-5.82917
-5.85896
-5.90192
-5.95178
-6.00456
-6.05851
-6.1125
-6.16546
-6.2165
-6.2651
-6.31099
-6.3541
-6.39439
-6.43193
-6.4668
-6.49915
-6.52914
-5.78107
-5.79584
-5.82975
-5.87758
-5.9317
-5.98784
-6.0446
-6.10092
-6.1557
-6.20796
-6.25732
-6.30355
-6.34672
-6.38683
-6.42406
-6.45854
-6.49047
-6.52007
-5.73186
-5.74986
-5.79089
-5.84691
-5.90776
-5.96921
-6.03045
-6.09063
-6.14838
-6.20282
-6.25362
-6.30083
-6.3445
-6.38483
-6.422
-6.4563
-6.48793
-6.51722
-5.6693
-5.69249
-5.74479
-5.81238
-5.88182
-5.94984
-6.01691
-6.08206
-6.14359
-6.20064
-6.25322
-6.30156
-6.34587
-6.38642
-6.42356
-6.45764
-6.48898
-6.51797
-5.59564
-5.62617
-5.69494
-5.77688
-5.85545
-5.93052
-6.00429
-6.07512
-6.1408
-6.20071
-6.25526
-6.30483
-6.34978
-6.39049
-6.42746
-6.46114
-6.492
-6.52042
-5.51122
-5.55322
-5.64462
-5.74212
-5.82887
-5.91103
-5.99214
-6.06901
-6.13889
-6.2017
-6.25827
-6.30913
-6.35473
-6.3956
-6.43239
-6.46574
-6.49623
-6.52444
-5.41499
-5.47859
-5.59751
-5.70944
-5.80189
-5.89063
-5.97962
-6.06287
-6.13706
-6.20298
-6.26178
-6.31403
-6.36015
-6.40087
-6.43708
-6.46964
-6.49925
-6.52657
-5.30538
-5.40837
-5.55894
-5.6842
-5.78075
-5.87552
-5.97145
-6.0601
-6.13803
-6.20674
-6.26788
-6.32177
-6.36878
-6.40968
-6.44557
-6.47753
-6.50645
-6.53337
-5.18211
-5.32842
-5.52403
-5.65891
-5.76178
-5.86595
-5.96938
-6.06239
-6.14304
-6.21325
-6.27483
-6.3288
-6.37539
-6.41545
-6.45022
-6.48104
-6.5089
-6.53533
-5.05108
-5.28881
-5.50634
-5.63323
-5.74073
-5.85744
-5.97034
-6.06882
-6.15346
-6.22676
-6.28964
-6.3436
-6.38961
-6.42852
-6.46206
-6.49172
-6.51859
-6.54519
-4.87342
-5.27604
-5.52511
-5.63229
-5.73406
-5.85514
-5.97131
-6.07099
-6.15622
-6.23054
-6.2947
-6.3488
-6.39383
-6.43141
-6.46311
-6.49016
-6.51403
-6.53576
-4.61006
-5.20142
-5.51314
-5.63067
-5.7404
-5.87151
-5.9958
-6.10134
-6.18999
-6.26552
-6.33095
-6.38533
-6.42905
-6.4648
-6.49358
-6.51605
-6.53414
-6.54766
-7.44571
-7.44583
-7.44589
-7.44584
-7.44549
-7.4443
-7.44194
-7.43887
-7.43599
-7.43421
-7.43443
-7.4368
-7.44085
-7.44587
-7.45113
-7.45603
-7.46004
-7.4628
-7.46429
-7.46484
-7.4647
-7.46408
-7.46318
-7.4623
-7.46164
-7.46129
-7.46118
-7.46113
-7.46094
-7.46056
-7.46002
-7.45936
-7.45852
-7.45744
-7.4562
-7.45505
-7.45456
-7.45539
-7.45765
-7.46076
-7.46384
-7.46633
-7.46826
-7.47002
-7.472
-7.47466
-7.47785
-7.48073
-7.48291
-7.48597
-7.49345
-7.50961
-7.5352
-7.5686
-7.60855
-7.65583
-7.71134
-7.77362
-7.8406
-7.91047
-7.98131
-8.05127
-8.11887
-8.1833
-8.244
-8.30026
-8.35188
-8.39882
-8.44111
-8.4788
-8.51203
-8.54083
-8.56533
-8.58553
-8.60151
-8.61324
-8.62079
-8.62409
-8.6232
-8.618
-8.60851
-8.5946
-8.57623
-8.55324
-8.52566
-8.49342
-8.4565
-8.41473
-8.36792
-8.31588
-8.25859
-8.19604
-8.12825
-8.05519
-7.97685
-7.89319
-7.80424
-7.70997
-7.61046
-7.50573
-7.39583
-7.28082
-7.1609
-7.03632
-6.90718
-6.77357
-6.63565
-6.49362
-6.34763
-6.19784
-6.04435
-5.88728
-5.72669
-5.56265
-5.39514
-5.22416
-5.04961
-4.87141
-4.68946
-4.50372
-4.31412
-4.12054
-3.92283
-3.72084
-3.51438
-3.30335
-3.08761
-2.8671
-2.64171
-2.41144
-2.17625
-1.93622
-1.69141
-1.44198
-1.1881
-0.930073
-0.668219
-0.402803
-0.133959
0.138148
0.413126
0.690462
0.969685
1.25031
1.53187
1.81388
2.09587
2.37737
2.65791
2.93705
3.21436
3.48942
3.76186
4.03131
4.29742
4.55989
4.81846
5.07286
5.32292
5.56844
5.80931
6.0454
6.27663
6.50295
6.72431
6.94067
7.15203
7.35837
7.5597
7.75606
7.94747
8.13397
8.3156
8.49239
8.66439
8.8317
8.99477
9.15355
9.31121
9.45935
-7.44684
-7.44701
-7.44733
-7.44763
-7.44756
-7.44674
-7.44493
-7.44269
-7.44114
-7.44114
-7.44295
-7.44639
-7.451
-7.45614
-7.46126
-7.46588
-7.46969
-7.47249
-7.4741
-7.47437
-7.47338
-7.47146
-7.46903
-7.46652
-7.46434
-7.4627
-7.46162
-7.4609
-7.46033
-7.45977
-7.45925
-7.45876
-7.45821
-7.45753
-7.45673
-7.45617
-7.45657
-7.4584
-7.46144
-7.46477
-7.4673
-7.46857
-7.46898
-7.46872
-7.46775
-7.46718
-7.46923
-7.4751
-7.48155
-7.48764
-7.49732
-7.51243
-7.53345
-7.56269
-7.60313
-7.65517
-7.71593
-7.78263
-7.8532
-7.9253
-7.99688
-8.06636
-8.13303
-8.19599
-8.25425
-8.3079
-8.35709
-8.4018
-8.44216
-8.47823
-8.51011
-8.53785
-8.56151
-8.58111
-8.59665
-8.60813
-8.61554
-8.61883
-8.618
-8.61297
-8.60372
-8.59013
-8.57215
-8.54964
-8.52256
-8.49085
-8.45449
-8.4133
-8.3671
-8.31573
-8.25913
-8.19728
-8.13014
-8.05772
-7.97998
-7.89694
-7.80859
-7.71493
-7.61595
-7.51164
-7.40209
-7.28747
-7.16792
-7.04359
-6.91466
-6.78133
-6.6438
-6.50218
-6.35661
-6.20723
-6.05418
-5.89754
-5.73742
-5.57385
-5.40688
-5.23646
-5.06253
-4.885
-4.70379
-4.51883
-4.33005
-4.13733
-3.94052
-3.73947
-3.534
-3.32398
-3.1093
-2.88985
-2.66555
-2.43637
-2.20229
-1.96333
-1.71957
-1.47114
-1.21816
-0.960799
-0.69928
-0.433958
-0.165261
0.106427
0.380848
0.65767
0.93645
1.21671
1.49799
1.77979
2.06165
2.34308
2.62364
2.90286
3.18032
3.45559
3.72829
3.99806
4.26454
4.52743
4.78644
5.04133
5.2919
5.53795
5.77936
6.01601
6.24781
6.47469
6.69662
6.91355
7.12547
7.33239
7.5343
7.73123
7.92323
8.11032
8.29258
8.4701
8.64292
8.81113
8.97511
9.13434
9.29431
9.44199
-7.44808
-7.44808
-7.4481
-7.44815
-7.44819
-7.44819
-7.44839
-7.44929
-7.45131
-7.45457
-7.45885
-7.46382
-7.46909
-7.47424
-7.47893
-7.48289
-7.48594
-7.48797
-7.48891
-7.4887
-7.48736
-7.48504
-7.48189
-7.47813
-7.474
-7.46976
-7.46569
-7.46204
-7.45897
-7.45657
-7.45478
-7.45338
-7.45214
-7.45109
-7.45068
-7.45156
-7.45422
-7.45848
-7.46306
-7.46626
-7.46683
-7.46531
-7.46352
-7.46305
-7.46366
-7.46484
-7.46883
-7.47761
-7.49054
-7.50767
-7.53021
-7.55855
-7.59289
-7.63367
-7.68138
-7.73534
-7.79378
-7.85507
-7.91785
-7.98078
-8.0428
-8.10307
-8.16106
-8.21627
-8.26822
-8.3167
-8.36161
-8.40285
-8.44042
-8.47427
-8.5044
-8.53078
-8.5534
-8.57222
-8.58721
-8.59832
-8.6055
-8.60871
-8.6079
-8.60299
-8.59394
-8.58066
-8.56305
-8.54103
-8.51451
-8.48342
-8.44771
-8.40722
-8.36176
-8.3112
-8.25543
-8.19442
-8.1281
-8.05645
-7.97945
-7.8971
-7.80941
-7.71642
-7.61813
-7.51458
-7.40584
-7.29203
-7.17327
-7.04969
-6.92148
-6.7888
-6.65187
-6.51084
-6.36587
-6.21708
-6.06465
-5.90865
-5.74919
-5.58633
-5.42011
-5.25049
-5.07744
-4.90085
-4.72065
-4.53677
-4.34912
-4.15758
-3.962
-3.76221
-3.55806
-3.34939
-3.13609
-2.91804
-2.69516
-2.4674
-2.23473
-1.99718
-1.75481
-1.50773
-1.2561
-1.00006
-0.739815
-0.475661
-0.20799
0.0628116
0.336424
0.612514
0.890643
1.17036
1.45117
1.73262
2.01421
2.29548
2.57595
2.85517
3.13269
3.4081
3.68101
3.95104
4.21784
4.4811
4.74053
4.99587
5.24691
5.49346
5.73538
5.97253
6.20484
6.43223
6.65465
6.87207
7.08448
7.29186
7.49422
7.69159
7.88401
8.07151
8.25414
8.43196
8.60511
8.77374
8.9385
9.09831
9.26097
9.40426
-7.44921
-7.44895
-7.44861
-7.44862
-7.4497
-7.45224
-7.45609
-7.46088
-7.46628
-7.47198
-7.47773
-7.48328
-7.48843
-7.49301
-7.49687
-7.49986
-7.50189
-7.50291
-7.5029
-7.50181
-7.49967
-7.49655
-7.49253
-7.48769
-7.48215
-7.47602
-7.4695
-7.46287
-7.45647
-7.45064
-7.44562
-7.44158
-7.43877
-7.43762
-7.43881
-7.44257
-7.448
-7.45338
-7.45713
-7.45879
-7.45882
-7.45848
-7.45929
-7.46209
-7.4674
-7.47597
-7.48874
-7.50642
-7.52914
-7.55662
-7.5885
-7.62448
-7.66438
-7.70797
-7.75506
-7.80525
-7.85789
-7.91222
-7.96748
-8.02286
-8.07767
-8.13128
-8.18318
-8.23296
-8.28026
-8.32483
-8.36647
-8.40503
-8.4404
-8.47249
-8.50121
-8.52649
-8.54826
-8.56645
-8.58099
-8.59181
-8.59884
-8.60201
-8.60124
-8.59647
-8.58762
-8.57462
-8.55738
-8.5358
-8.50979
-8.47928
-8.44418
-8.40434
-8.35959
-8.30979
-8.25482
-8.19461
-8.12911
-8.05826
-7.98202
-7.90039
-7.81339
-7.72104
-7.62337
-7.52041
-7.41226
-7.29903
-7.18083
-7.05782
-6.93015
-6.798
-6.66157
-6.52102
-6.37654
-6.22828
-6.07639
-5.92097
-5.76215
-5.59997
-5.43449
-5.26568
-5.09351
-4.91789
-4.73874
-4.55598
-4.36953
-4.17923
-3.98494
-3.78648
-3.5837
-3.37644
-3.16458
-2.94798
-2.72656
-2.50025
-2.26902
-2.03289
-1.7919
-1.54616
-1.29581
-1.041
-0.781964
-0.51895
-0.252304
0.0176166
0.290463
0.565874
0.843417
1.12264
1.40307
1.68423
1.96562
2.24678
2.52722
2.80648
3.08412
3.35972
3.63287
3.9032
4.17034
4.43399
4.69385
4.94965
5.20116
5.44821
5.69063
5.92829
6.1611
6.38899
6.6119
6.82979
7.04265
7.25047
7.45324
7.651
7.84378
8.03163
8.21461
8.3928
8.56634
8.73534
8.9006
9.06042
9.22379
9.36059
-7.45142
-7.45087
-7.45051
-7.45184
-7.4558
-7.46175
-7.46866
-7.47583
-7.48284
-7.48941
-7.49542
-7.5008
-7.50548
-7.50941
-7.51249
-7.51466
-7.51584
-7.516
-7.5151
-7.51313
-7.51009
-7.50602
-7.50096
-7.49498
-7.48814
-7.48051
-7.47218
-7.46336
-7.45435
-7.44563
-7.43777
-7.43152
-7.42781
-7.42745
-7.43038
-7.43506
-7.43997
-7.44428
-7.44763
-7.45036
-7.45322
-7.4573
-7.46365
-7.47318
-7.48672
-7.50471
-7.52693
-7.55278
-7.58199
-7.61422
-7.64918
-7.68676
-7.7269
-7.76952
-7.81446
-7.86143
-7.90998
-7.95961
-8.00978
-8.05995
-8.10961
-8.1583
-8.20564
-8.25126
-8.29485
-8.33618
-8.37504
-8.41123
-8.44463
-8.47508
-8.50247
-8.52667
-8.54759
-8.56512
-8.57917
-8.58963
-8.59642
-8.59945
-8.59865
-8.59392
-8.58518
-8.57237
-8.55538
-8.53412
-8.5085
-8.47842
-8.44381
-8.4045
-8.36031
-8.31109
-8.25675
-8.19717
-8.1323
-8.06206
-7.98643
-7.90537
-7.81892
-7.72706
-7.62985
-7.52731
-7.41954
-7.30665
-7.18876
-7.06605
-6.93866
-6.8068
-6.67064
-6.53039
-6.38622
-6.23831
-6.08681
-5.93186
-5.77356
-5.61199
-5.44718
-5.27914
-5.1078
-4.93311
-4.75499
-4.57335
-4.38805
-4.19898
-4.00594
-3.80879
-3.60733
-3.40143
-3.19091
-2.97568
-2.7556
-2.53062
-2.30069
-2.06582
-1.82604
-1.58145
-1.33216
-1.07836
-0.820262
-0.55813
-0.292269
-0.0230255
0.249263
0.524201
0.801371
1.0803
1.36054
1.64157
1.92293
2.20412
2.48466
2.76409
3.04194
3.3178
3.59125
3.86191
4.12943
4.39347
4.65374
4.90996
5.16192
5.40941
5.65228
5.89039
6.12364
6.35195
6.57528
6.79357
7.00681
7.215
7.41813
7.61624
7.80934
7.9975
8.18077
8.35924
8.53304
8.70219
8.86749
9.02666
9.18954
9.31923
-7.45548
-7.45463
-7.45511
-7.45929
-7.4663
-7.47432
-7.48242
-7.49015
-7.49728
-7.50374
-7.50951
-7.51456
-7.51884
-7.52229
-7.52483
-7.5264
-7.52695
-7.52644
-7.52486
-7.5222
-7.51845
-7.51365
-7.50782
-7.50097
-7.4931
-7.48429
-7.4747
-7.46452
-7.45409
-7.44403
-7.43519
-7.42865
-7.42539
-7.42529
-7.42716
-7.42984
-7.43311
-7.43718
-7.44231
-7.44859
-7.45631
-7.46655
-7.48032
-7.49787
-7.51901
-7.54338
-7.57071
-7.60064
-7.63286
-7.66721
-7.70351
-7.74166
-7.78156
-7.82312
-7.86618
-7.91052
-7.95582
-8.00175
-8.04794
-8.09403
-8.13966
-8.18449
-8.22821
-8.27051
-8.31112
-8.34981
-8.38636
-8.42058
-8.45229
-8.48133
-8.50754
-8.53078
-8.55091
-8.56781
-8.58135
-8.59143
-8.59794
-8.60079
-8.59988
-8.59513
-8.58644
-8.57374
-8.55693
-8.53591
-8.51059
-8.48087
-8.44665
-8.40776
-8.364
-8.31526
-8.26139
-8.20229
-8.13786
-8.06804
-7.9928
-7.9121
-7.82596
-7.73438
-7.63739
-7.53502
-7.42737
-7.31454
-7.1967
-7.074
-6.94662
-6.81477
-6.67864
-6.53844
-6.39437
-6.24661
-6.09535
-5.94072
-5.78283
-5.62178
-5.45758
-5.29025
-5.11973
-4.94595
-4.76884
-4.58829
-4.40417
-4.2163
-4.02452
-3.82864
-3.62848
-3.42388
-3.21465
-3.00069
-2.78186
-2.55809
-2.32933
-2.09556
-1.85681
-1.61316
-1.36475
-1.11174
-0.854345
-0.592839
-0.327509
-0.0586885
0.213277
0.487985
0.765011
1.04388
1.32412
1.60524
1.88674
2.16812
2.44891
2.72862
3.00679
3.28299
3.5568
3.82784
4.09574
4.36017
4.62082
4.87744
5.12978
5.37766
5.62089
5.85936
6.09295
6.3216
6.54525
6.76386
6.97738
7.18583
7.38921
7.58753
7.78083
7.96916
8.15259
8.33116
8.505
8.67404
8.83902
8.99716
9.15927
9.28194
-7.46054
-7.46011
-7.4626
-7.46933
-7.47765
-7.48594
-7.49382
-7.5012
-7.50801
-7.51421
-7.51976
-7.52457
-7.52857
-7.53168
-7.53385
-7.53501
-7.53513
-7.53418
-7.53215
-7.52901
-7.52481
-7.51955
-7.51317
-7.50562
-7.497
-7.4875
-7.47734
-7.4668
-7.45632
-7.44661
-7.43871
-7.43338
-7.4303
-7.42864
-7.42825
-7.42945
-7.43277
-7.43822
-7.44574
-7.45587
-7.46923
-7.48591
-7.50574
-7.5285
-7.55395
-7.58176
-7.6117
-7.64362
-7.67733
-7.71268
-7.74952
-7.78771
-7.82713
-7.86767
-7.90919
-7.95149
-7.99438
-8.03762
-8.08095
-8.12412
-8.16685
-8.20887
-8.24992
-8.28975
-8.32811
-8.36479
-8.39956
-8.43223
-8.4626
-8.49049
-8.51572
-8.53814
-8.55759
-8.57391
-8.58698
-8.59668
-8.60289
-8.60551
-8.60444
-8.5996
-8.59089
-8.57824
-8.56154
-8.5407
-8.51561
-8.48618
-8.45228
-8.41373
-8.37035
-8.32197
-8.26847
-8.20971
-8.14559
-8.07604
-8.00099
-7.92046
-7.83441
-7.74286
-7.64583
-7.54337
-7.43558
-7.32256
-7.20449
-7.08153
-6.9539
-6.82178
-6.68543
-6.54504
-6.40086
-6.25306
-6.10187
-5.94742
-5.78985
-5.62922
-5.46559
-5.29892
-5.1292
-4.95633
-4.78024
-4.60079
-4.41784
-4.23119
-4.04069
-3.84608
-3.64722
-3.44389
-3.23593
-3.02318
-2.80553
-2.58287
-2.35517
-2.12238
-1.88452
-1.64168
-1.39397
-1.14157
-0.884693
-0.623598
-0.358587
-0.089967
0.181888
0.45659
0.73368
1.0127
1.29315
1.57453
1.85634
2.13808
2.41924
2.69935
2.97793
3.25456
3.52879
3.80024
4.06854
4.33336
4.59438
4.85135
5.10403
5.35222
5.59577
5.83452
6.06839
6.29729
6.52116
6.73996
6.95365
7.16224
7.36572
7.56413
7.7575
7.94587
8.1293
8.30782
8.48152
8.65025
8.81468
8.97163
9.13298
9.249
-7.46455
-7.46528
-7.47016
-7.47794
-7.486
-7.49372
-7.5011
-7.50811
-7.51468
-7.5207
-7.52609
-7.53074
-7.53457
-7.5375
-7.53947
-7.54042
-7.54031
-7.53913
-7.53685
-7.53349
-7.52906
-7.52349
-7.51671
-7.50885
-7.50011
-7.49068
-7.48078
-7.47082
-7.46147
-7.45346
-7.44713
-7.44203
-7.43772
-7.43463
-7.43362
-7.43499
-7.43911
-7.44652
-7.4574
-7.47165
-7.48906
-7.50942
-7.53247
-7.55793
-7.58557
-7.61518
-7.64656
-7.67956
-7.71402
-7.7498
-7.78674
-7.82475
-7.86368
-7.90343
-7.94384
-7.98477
-8.02606
-8.06753
-8.10898
-8.1502
-8.19097
-8.23108
-8.2703
-8.30841
-8.34519
-8.38043
-8.41392
-8.44545
-8.47483
-8.50185
-8.52633
-8.54809
-8.56696
-8.58278
-8.59542
-8.60474
-8.61062
-8.61297
-8.6117
-8.60671
-8.59792
-8.58525
-8.5686
-8.54788
-8.52296
-8.49375
-8.46011
-8.42185
-8.37876
-8.3307
-8.27748
-8.21897
-8.15505
-8.08563
-8.01065
-7.93009
-7.84394
-7.75221
-7.65492
-7.55213
-7.44393
-7.33047
-7.21191
-7.08845
-6.96029
-6.82768
-6.69086
-6.55007
-6.40557
-6.25757
-6.1063
-5.95191
-5.79455
-5.6343
-5.47117
-5.30516
-5.13622
-4.96427
-4.7892
-4.61087
-4.42912
-4.24373
-4.05451
-3.86121
-3.66365
-3.4616
-3.25488
-3.04331
-2.82679
-2.6052
-2.37848
-2.14658
-1.90952
-1.66736
-1.42023
-1.1683
-0.911781
-0.650937
-0.386059
-0.117466
0.154467
0.429336
0.706675
0.986011
1.26683
1.54864
1.83091
2.11312
2.39477
2.67538
2.95447
3.23158
3.50629
3.77819
4.04692
4.31213
4.57353
4.83084
5.08384
5.33232
5.57612
5.81511
6.04918
6.27825
6.50227
6.72117
6.93493
7.14355
7.34705
7.54544
7.73878
7.92709
8.11042
8.28877
8.4622
8.63048
8.79426
8.94996
9.11059
9.2205
-7.46577
-7.46798
-7.47435
-7.48194
-7.48938
-7.49663
-7.50371
-7.51053
-7.51698
-7.52294
-7.52829
-7.53292
-7.53674
-7.53966
-7.54162
-7.54256
-7.54245
-7.54126
-7.53898
-7.53561
-7.53112
-7.52545
-7.51865
-7.51095
-7.50257
-7.49375
-7.48488
-7.4764
-7.4687
-7.4619
-7.45581
-7.45028
-7.44558
-7.44256
-7.44205
-7.44462
-7.45067
-7.46035
-7.47345
-7.4898
-7.50916
-7.53123
-7.55577
-7.58252
-7.61126
-7.64179
-7.67393
-7.70751
-7.74239
-7.7784
-7.81544
-7.85335
-7.89202
-7.93131
-7.97109
-8.01124
-8.05161
-8.09204
-8.13237
-8.17241
-8.212
-8.25093
-8.28901
-8.32604
-8.36182
-8.39615
-8.42881
-8.4596
-8.4883
-8.51472
-8.53865
-8.55991
-8.57831
-8.5937
-8.60593
-8.61487
-8.62041
-8.62244
-8.6209
-8.6157
-8.60677
-8.59402
-8.57736
-8.55669
-8.53189
-8.50285
-8.46943
-8.43141
-8.38859
-8.34078
-8.28781
-8.22948
-8.16568
-8.09627
-8.02123
-7.9405
-7.85408
-7.76198
-7.66422
-7.56088
-7.45205
-7.33792
-7.21863
-7.09443
-6.96552
-6.8322
-6.69469
-6.55332
-6.40831
-6.25997
-6.10848
-5.95408
-5.79686
-5.63693
-5.47429
-5.30893
-5.14077
-4.96976
-4.79574
-4.61857
-4.43804
-4.25395
-4.06603
-3.87407
-3.67781
-3.47705
-3.27155
-3.06116
-2.84573
-2.62516
-2.39936
-2.16828
-1.93193
-1.69037
-1.4437
-1.19212
-0.935837
-0.675111
-0.410221
-0.141512
0.130653
0.40583
0.683565
0.963348
1.24468
1.52703
1.80986
2.09265
2.37488
2.65606
2.93571
3.21337
3.48861
3.76101
4.03019
4.2958
4.55756
4.8152
5.06849
5.31722
5.56122
5.80038
6.03458
6.26376
6.48784
6.70677
6.92052
7.1291
7.33252
7.53082
7.72403
7.91219
8.09533
8.27343
8.44649
8.61424
8.77728
8.93174
9.09167
9.19611
-7.46263
-7.46608
-7.47274
-7.47989
-7.48704
-7.49415
-7.50117
-7.50799
-7.5145
-7.52057
-7.52608
-7.5309
-7.53492
-7.53805
-7.54021
-7.54134
-7.5414
-7.54036
-7.53822
-7.53495
-7.53054
-7.52503
-7.51857
-7.51141
-7.50383
-7.49611
-7.48852
-7.48116
-7.47412
-7.46751
-7.46143
-7.45613
-7.45219
-7.45034
-7.45118
-7.45514
-7.46249
-7.47331
-7.48746
-7.50476
-7.52497
-7.54782
-7.57305
-7.60042
-7.62973
-7.66078
-7.69338
-7.72738
-7.7626
-7.79891
-7.83615
-7.87418
-7.91286
-7.95207
-7.99169
-8.03157
-8.07158
-8.11158
-8.15141
-8.19093
-8.22995
-8.26832
-8.30585
-8.34235
-8.37763
-8.41148
-8.44371
-8.47409
-8.50241
-8.52845
-8.552
-8.57286
-8.59086
-8.60584
-8.61764
-8.62616
-8.63129
-8.63295
-8.63108
-8.62562
-8.61648
-8.60361
-8.5869
-8.56626
-8.54155
-8.51267
-8.47945
-8.44167
-8.39908
-8.35151
-8.29873
-8.24055
-8.17677
-8.10731
-8.03207
-7.95104
-7.8642
-7.77155
-7.67314
-7.56905
-7.4594
-7.34437
-7.22416
-7.09901
-6.96917
-6.83493
-6.69658
-6.55445
-6.40882
-6.26
-6.10825
-5.95376
-5.79667
-5.63704
-5.47489
-5.31019
-5.14286
-4.9728
-4.79988
-4.62389
-4.44463
-4.26185
-4.07529
-3.88467
-3.68975
-3.49027
-3.28599
-3.07676
-2.8624
-2.64282
-2.41789
-2.18758
-1.95188
-1.71084
-1.46457
-1.21325
-0.957093
-0.696368
-0.431359
-0.16241
0.110093
0.3857
0.66393
0.944266
1.22619
1.50916
1.79263
2.07607
2.35895
2.64077
2.92105
3.19931
3.47513
3.74804
4.01767
4.28369
4.5458
4.80375
5.05728
5.30622
5.55039
5.78966
6.02394
6.25318
6.47728
6.69618
6.90985
7.11832
7.32159
7.51972
7.71274
7.9007
8.08358
8.26135
8.43398
8.60112
8.76339
8.91662
9.07584
9.1755
-7.4533
-7.45742
-7.46395
-7.47112
-7.47847
-7.4858
-7.49303
-7.50007
-7.50685
-7.51323
-7.51907
-7.52424
-7.52861
-7.53207
-7.53454
-7.53596
-7.53629
-7.53551
-7.53362
-7.53062
-7.52657
-7.52159
-7.51583
-7.5095
-7.50277
-7.49578
-7.48871
-7.48166
-7.47478
-7.46829
-7.46257
-7.45802
-7.45509
-7.45432
-7.45623
-7.4612
-7.46943
-7.48097
-7.49575
-7.51358
-7.53424
-7.5575
-7.58311
-7.61087
-7.64057
-7.67204
-7.70508
-7.73952
-7.7752
-7.81194
-7.84958
-7.88798
-7.927
-7.96651
-8.00636
-8.04642
-8.08656
-8.12662
-8.16648
-8.20599
-8.24498
-8.28329
-8.32072
-8.35711
-8.39226
-8.42598
-8.45805
-8.48825
-8.51638
-8.54219
-8.56546
-8.58601
-8.60364
-8.6182
-8.62955
-8.63759
-8.64224
-8.64347
-8.64121
-8.63543
-8.62606
-8.61303
-8.59625
-8.57562
-8.551
-8.52227
-8.48926
-8.4517
-8.40936
-8.36201
-8.30939
-8.2513
-8.18749
-8.11787
-8.04232
-7.96086
-7.87346
-7.78012
-7.68091
-7.5759
-7.46526
-7.34916
-7.22786
-7.10158
-6.97065
-6.83535
-6.69605
-6.55305
-6.40673
-6.25739
-6.10534
-5.95076
-5.79381
-5.6345
-5.47288
-5.30886
-5.14239
-4.97333
-4.80154
-4.62678
-4.44883
-4.2674
-4.08222
-3.89297
-3.6994
-3.5012
-3.29817
-3.09007
-2.87679
-2.65816
-2.4341
-2.20452
-1.96943
-1.72885
-1.48292
-1.2318
-0.975719
-0.714931
-0.449744
-0.180488
0.0924186
0.36853
0.64733
0.928302
1.21089
1.49456
1.77874
2.0629
2.34649
2.629
2.90994
3.18883
3.46525
3.7387
4.00879
4.27519
4.53763
4.79584
5.0496
5.2987
5.54298
5.78231
6.01663
6.24588
6.46996
6.68876
6.9023
7.11059
7.31367
7.51157
7.70435
7.89204
8.07463
8.25201
8.42416
8.59065
8.75213
8.90417
9.06267
9.15822
-7.43643
-7.44067
-7.44743
-7.45533
-7.46339
-7.47122
-7.47882
-7.48622
-7.4934
-7.50025
-7.50659
-7.51224
-7.51706
-7.52095
-7.52384
-7.52567
-7.52641
-7.52605
-7.52461
-7.52212
-7.51864
-7.51427
-7.50913
-7.50336
-7.49709
-7.49044
-7.48354
-7.47658
-7.46984
-7.46367
-7.45838
-7.45438
-7.45216
-7.45223
-7.45499
-7.46074
-7.46966
-7.48178
-7.49702
-7.51523
-7.53622
-7.55978
-7.58572
-7.61385
-7.64398
-7.67593
-7.70951
-7.74454
-7.78082
-7.81819
-7.85649
-7.89556
-7.93524
-7.9754
-8.01587
-8.0565
-8.09714
-8.13767
-8.17793
-8.21779
-8.25708
-8.29565
-8.33332
-8.36991
-8.40522
-8.43906
-8.4712
-8.50141
-8.52948
-8.55516
-8.57822
-8.59844
-8.61566
-8.62974
-8.64054
-8.64798
-8.65203
-8.6527
-8.64997
-8.64382
-8.63419
-8.62101
-8.60416
-8.58354
-8.55901
-8.53045
-8.49764
-8.46033
-8.41823
-8.3711
-8.31866
-8.2606
-8.19671
-8.12681
-8.05087
-7.96888
-7.88082
-7.7867
-7.68657
-7.58054
-7.46877
-7.35149
-7.22897
-7.10148
-6.96936
-6.83294
-6.69262
-6.54876
-6.40173
-6.25188
-6.09955
-5.94494
-5.78814
-5.6292
-5.46811
-5.30482
-5.13924
-4.97123
-4.80059
-4.62711
-4.45051
-4.27048
-4.08671
-3.89887
-3.70669
-3.50984
-3.30807
-3.10116
-2.88896
-2.67133
-2.44815
-2.21932
-1.98483
-1.74473
-1.49912
-1.24818
-0.992149
-0.731269
-0.465848
-0.196237
0.0771383
0.353805
0.633242
0.914907
1.19824
1.48267
1.76762
2.05255
2.33689
2.62012
2.90174
3.18129
3.45835
3.73237
4.00291
4.26968
4.53243
4.79089
5.04483
5.29406
5.53843
5.77779
6.0121
6.24133
6.46535
6.68403
6.89738
7.10545
7.30828
7.50592
7.69841
7.88581
8.06807
8.24504
8.41666
8.58248
8.74317
8.89406
9.05181
9.14393
-7.41179
-7.41593
-7.42356
-7.43279
-7.44183
-7.45023
-7.45826
-7.46615
-7.47398
-7.48157
-7.48864
-7.49496
-7.50037
-7.5048
-7.50822
-7.51059
-7.51189
-7.51211
-7.51124
-7.50931
-7.50639
-7.50253
-7.49783
-7.49238
-7.48629
-7.47972
-7.47287
-7.46599
-7.45938
-7.45335
-7.44833
-7.44476
-7.44312
-7.44384
-7.44727
-7.45365
-7.46311
-7.47567
-7.49127
-7.50978
-7.53104
-7.55491
-7.58121
-7.60978
-7.64044
-7.67302
-7.70732
-7.74313
-7.78027
-7.81853
-7.85773
-7.89772
-7.93832
-7.97936
-8.02068
-8.06213
-8.10356
-8.14482
-8.18577
-8.22625
-8.26611
-8.30518
-8.34332
-8.38032
-8.41598
-8.45011
-8.48246
-8.5128
-8.54086
-8.56637
-8.58907
-8.6088
-8.62541
-8.63879
-8.64883
-8.65544
-8.65869
-8.65867
-8.65541
-8.64889
-8.63904
-8.62576
-8.6089
-8.58833
-8.56394
-8.53557
-8.50302
-8.46598
-8.42418
-8.37729
-8.325
-8.26696
-8.20292
-8.13268
-8.05629
-7.97374
-7.88502
-7.7901
-7.68901
-7.58191
-7.46897
-7.35047
-7.22669
-7.09799
-6.96467
-6.82716
-6.68584
-6.54118
-6.3935
-6.24322
-6.09063
-5.93598
-5.7793
-5.62069
-5.46011
-5.29753
-5.13281
-4.96586
-4.79642
-4.62427
-4.44907
-4.27053
-4.08826
-3.90196
-3.71127
-3.5159
-3.31552
-3.10993
-2.89892
-2.68239
-2.46013
-2.23209
-1.99825
-1.75864
-1.51338
-1.26264
-1.00665
-0.74566
-0.479972
-0.209977
0.063901
0.341155
0.621262
0.903648
1.18775
1.47296
1.75871
2.04441
2.32951
2.61347
2.89578
3.17604
3.45383
3.72847
3.99945
4.26658
4.52961
4.78829
5.04239
5.29173
5.53615
5.7755
6.0098
6.23903
6.46297
6.68148
6.8946
7.10241
7.30496
7.50231
7.69449
7.88159
8.06349
8.24002
8.41109
8.57623
8.73611
8.88591
9.04285
9.13224
-7.38051
-7.38494
-7.39397
-7.40488
-7.41496
-7.424
-7.43273
-7.44136
-7.44991
-7.45839
-7.46652
-7.47384
-7.47998
-7.48496
-7.48892
-7.4919
-7.49383
-7.49466
-7.49438
-7.49299
-7.49052
-7.48701
-7.48254
-7.47719
-7.47112
-7.46452
-7.4576
-7.45062
-7.44395
-7.43798
-7.43315
-7.42991
-7.42868
-7.42985
-7.43372
-7.44048
-7.45027
-7.46309
-7.47891
-7.49765
-7.51921
-7.54344
-7.57018
-7.59929
-7.63059
-7.66391
-7.69905
-7.73579
-7.77392
-7.81324
-7.85355
-7.89465
-7.93635
-7.97846
-8.02083
-8.06329
-8.10568
-8.14786
-8.18966
-8.23092
-8.27149
-8.31119
-8.34985
-8.38729
-8.42329
-8.45764
-8.4901
-8.52039
-8.54823
-8.5733
-8.59533
-8.61419
-8.62989
-8.64234
-8.65139
-8.65692
-8.65916
-8.65835
-8.65456
-8.64772
-8.63779
-8.62456
-8.60783
-8.58743
-8.56325
-8.53518
-8.50296
-8.4663
-8.42486
-8.37829
-8.32617
-8.26816
-8.20396
-8.13344
-8.05666
-7.97366
-7.88436
-7.78866
-7.68664
-7.57846
-7.46437
-7.34466
-7.21967
-7.08975
-6.9553
-6.81676
-6.67456
-6.52916
-6.38092
-6.2302
-6.07725
-5.92232
-5.76553
-5.60698
-5.4467
-5.28462
-5.12066
-4.95466
-4.78637
-4.61553
-4.4418
-4.26482
-4.08421
-3.8996
-3.71061
-3.5169
-3.31814
-3.11409
-2.90448
-2.68914
-2.46793
-2.24079
-2.00769
-1.76867
-1.52384
-1.27339
-1.01752
-0.756486
-0.490615
-0.220308
0.0539812
0.33174
0.61242
0.895438
1.1802
1.46609
1.75252
2.03888
2.32462
2.60916
2.89202
3.17286
3.45127
3.72646
3.99783
4.26526
4.52854
4.7874
5.04164
5.29106
5.53549
5.77484
6.00918
6.23848
6.46235
6.68065
6.89351
7.10105
7.30331
7.50036
7.69225
7.87907
8.06064
8.23671
8.40723
8.57168
8.73078
8.87953
9.03559
9.12291
-7.34539
-7.35065
-7.36157
-7.37451
-7.38568
-7.39507
-7.40418
-7.41375
-7.42355
-7.43318
-7.44239
-7.45075
-7.45773
-7.46328
-7.46776
-7.47133
-7.47386
-7.47528
-7.47552
-7.47456
-7.4724
-7.46908
-7.46468
-7.4593
-7.45309
-7.44625
-7.43907
-7.43186
-7.42503
-7.41898
-7.41417
-7.41101
-7.40991
-7.4112
-7.41516
-7.42197
-7.43176
-7.44458
-7.46044
-7.47928
-7.50102
-7.52556
-7.55276
-7.58246
-7.6145
-7.64867
-7.68476
-7.72253
-7.76179
-7.80229
-7.84382
-7.88614
-7.92907
-7.97239
-8.01591
-8.05946
-8.10285
-8.14591
-8.18847
-8.23037
-8.27145
-8.31154
-8.35047
-8.38805
-8.42407
-8.45832
-8.49055
-8.52047
-8.54775
-8.57198
-8.5928
-8.61023
-8.62455
-8.63582
-8.64373
-8.648
-8.64899
-8.64727
-8.64295
-8.63597
-8.6262
-8.61333
-8.59703
-8.57703
-8.55331
-8.52573
-8.49411
-8.45812
-8.41735
-8.37139
-8.3198
-8.26228
-8.19856
-8.12852
-8.05204
-7.96902
-7.87937
-7.78305
-7.68017
-7.57092
-7.45564
-7.33462
-7.20826
-7.07694
-6.94114
-6.80131
-6.658
-6.51159
-6.36254
-6.21111
-6.05757
-5.90212
-5.745
-5.5863
-5.42611
-5.26438
-5.10102
-4.93582
-4.76858
-4.59893
-4.42656
-4.25106
-4.07205
-3.88908
-3.70176
-3.50969
-3.31258
-3.11008
-2.90191
-2.68782
-2.46773
-2.24155
-2.00927
-1.77092
-1.52665
-1.27658
-1.02093
-0.75994
-0.493983
-0.223461
0.0511401
0.329305
0.610456
0.894002
1.17932
1.46578
1.75277
2.03966
2.32587
2.61082
2.89395
3.17476
3.45282
3.72775
3.99916
4.26669
4.53002
4.78888
5.04307
5.29238
5.53666
5.77583
6.01007
6.23931
6.46299
6.68099
6.89355
7.10079
7.30278
7.49954
7.69117
7.87782
8.05914
8.23475
8.40471
8.56849
8.72684
8.87458
9.02974
9.11563
-7.30873
-7.31508
-7.32833
-7.34314
-7.35467
-7.36444
-7.3746
-7.38534
-7.39624
-7.40698
-7.41728
-7.42666
-7.43451
-7.44078
-7.44594
-7.45021
-7.45341
-7.45544
-7.4562
-7.45564
-7.45374
-7.45054
-7.44608
-7.4405
-7.43398
-7.42675
-7.41912
-7.41145
-7.40414
-7.39763
-7.39236
-7.38874
-7.38715
-7.38794
-7.39138
-7.39768
-7.40698
-7.41938
-7.43491
-7.45357
-7.47531
-7.50005
-7.52768
-7.55805
-7.59093
-7.6261
-7.6633
-7.7023
-7.74283
-7.78465
-7.82748
-7.87109
-7.91523
-7.95967
-8.00421
-8.04864
-8.09278
-8.13642
-8.17941
-8.22159
-8.2628
-8.30289
-8.34169
-8.37901
-8.41467
-8.44846
-8.48011
-8.50936
-8.53581
-8.55885
-8.57785
-8.59298
-8.6052
-8.61509
-8.62253
-8.62706
-8.62833
-8.62667
-8.62231
-8.61544
-8.60569
-8.59296
-8.57674
-8.55698
-8.53349
-8.50636
-8.47529
-8.43994
-8.39989
-8.35466
-8.30385
-8.24711
-8.18425
-8.11507
-8.03926
-7.95656
-7.8669
-7.77029
-7.66683
-7.5568
-7.4405
-7.31831
-7.19064
-7.05795
-6.92072
-6.77953
-6.63491
-6.48735
-6.33729
-6.18507
-6.03094
-5.87511
-5.71781
-5.55915
-5.39921