/*--------------------------------*- C++ -*----------------------------------*\
  =========                 |
  \\      /  F ield         | OpenFOAM: The Open Source CFD Toolbox
   \\    /   O peration     | Website:  https://openfoam.org
    \\  /    A nd           | Version:  13
     \\/     M anipulation  |
\*---------------------------------------------------------------------------*/
FoamFile
{
    format      ascii;
    class       surfaceScalarField;
    location    "400";
    object      phi;
}
// * * * * * * * * * * * * * * * * * * * * * * * * * * * * * * * * * * * * * //

dimensions      [0 3 -1 0 0 0 0];

internalField   nonuniform List<scalar> 
24170
(
3.06204e-06
1.26137e-07
2.91684e-06
1.45135e-07
2.78789e-06
1.29182e-07
2.6745e-06
1.1333e-07
2.57765e-06
9.69061e-08
2.49553e-06
8.21467e-08
2.42542e-06
6.9991e-08
2.36712e-06
5.82331e-08
2.31901e-06
4.79964e-08
2.2786e-06
4.03111e-08
2.24465e-06
3.39418e-08
2.216e-06
2.86474e-08
2.19146e-06
2.45038e-08
2.17053e-06
2.09002e-08
2.15348e-06
1.70462e-08
2.13959e-06
1.38504e-08
2.13019e-06
9.28505e-09
4.1213e-09
2.12602e-06
3.46822e-06
7.50716e-08
3.50004e-06
1.13275e-07
3.51658e-06
1.12744e-07
3.51934e-06
1.1056e-07
3.51079e-06
1.05502e-07
3.49385e-06
9.91071e-08
3.47127e-06
9.256e-08
3.44442e-06
8.5081e-08
3.41408e-06
7.83381e-08
3.38338e-06
7.10184e-08
3.35359e-06
6.37796e-08
3.32466e-06
5.75987e-08
3.29647e-06
5.27096e-08
3.26935e-06
4.80285e-08
3.24403e-06
4.23714e-08
3.2207e-06
3.71392e-08
3.19865e-06
3.12554e-08
2.63105e-08
3.17642e-06
3.68199e-06
5.54362e-08
3.69983e-06
9.53791e-08
3.7136e-06
9.91704e-08
3.72591e-06
9.82361e-08
3.73616e-06
9.53367e-08
3.74442e-06
9.09005e-08
3.75096e-06
8.59543e-08
3.75522e-06
8.07943e-08
3.75729e-06
7.61977e-08
3.75733e-06
7.09248e-08
3.75558e-06
6.55464e-08
3.75231e-06
6.08824e-08
3.74806e-06
5.69436e-08
3.74316e-06
5.2928e-08
3.73722e-06
4.83071e-08
3.73064e-06
4.36762e-08
3.72321e-06
3.86154e-08
3.35097e-08
3.71601e-06
3.93676e-06
4.40021e-08
3.9496e-06
8.25767e-08
3.95881e-06
9.00739e-08
3.96669e-06
9.04117e-08
3.97354e-06
8.85754e-08
3.97932e-06
8.51847e-08
3.98451e-06
8.0809e-08
3.98934e-06
7.59985e-08
3.99406e-06
7.14952e-08
3.99837e-06
6.66432e-08
4.00215e-06
6.18234e-08
4.00552e-06
5.75478e-08
4.00874e-06
5.37406e-08
4.0118e-06
4.98804e-08
4.0144e-06
4.57109e-08
4.01658e-06
4.14622e-08
4.01817e-06
3.69779e-08
3.25238e-08
4.01915e-06
4.21561e-06
3.53834e-08
4.22628e-06
7.18322e-08
4.23453e-06
8.19572e-08
4.24133e-06
8.36323e-08
4.24722e-06
8.27621e-08
4.25221e-06
8.02427e-08
4.25655e-06
7.64548e-08
4.26045e-06
7.20938e-08
4.26413e-06
6.77867e-08
4.26748e-06
6.32755e-08
4.27052e-06
5.87932e-08
4.27341e-06
5.46763e-08
4.27631e-06
5.08532e-08
4.27918e-06
4.70019e-08
4.28188e-06
4.30137e-08
4.28436e-06
3.89448e-08
4.28653e-06
3.47643e-08
3.07318e-08
4.28832e-06
4.51575e-06
2.86642e-08
4.52505e-06
6.25785e-08
4.53291e-06
7.42042e-08
4.53945e-06
7.71642e-08
4.54519e-06
7.70956e-08
4.55024e-06
7.52516e-08
4.55462e-06
7.21089e-08
4.55847e-06
6.82789e-08
4.56201e-06
6.42697e-08
4.56522e-06
6.00856e-08
4.56813e-06
5.59212e-08
4.57087e-06
5.19671e-08
4.57355e-06
4.81859e-08
4.57616e-06
4.44038e-08
4.57861e-06
4.05581e-08
4.58087e-06
3.667e-08
4.58285e-06
3.27526e-08
2.89972e-08
4.58456e-06
4.83791e-06
2.33902e-08
4.84626e-06
5.41137e-08
4.85388e-06
6.66862e-08
4.86034e-06
7.07483e-08
4.86601e-06
7.14876e-08
4.8711e-06
7.02079e-08
4.87564e-06
6.75739e-08
4.8797e-06
6.42231e-08
4.8834e-06
6.05565e-08
4.88678e-06
5.67078e-08
4.88986e-06
5.2858e-08
4.89274e-06
4.91044e-08
4.8955e-06
4.54284e-08
4.89814e-06
4.17736e-08
4.90059e-06
3.81012e-08
4.90281e-06
3.44194e-08
4.90478e-06
3.07533e-08
2.72865e-08
4.9065e-06
5.18367e-06
1.92581e-08
5.19117e-06
4.66394e-08
5.19853e-06
5.94239e-08
5.20503e-06
6.43076e-08
5.21077e-06
6.58158e-08
5.2159e-06
6.51201e-08
5.22053e-06
6.2966e-08
5.22476e-06
6.0015e-08
5.22864e-06
5.66909e-08
5.23221e-06
5.31554e-08
5.23551e-06
4.95795e-08
5.2386e-06
4.60337e-08
5.24152e-06
4.25227e-08
5.24426e-06
3.90321e-08
5.24681e-06
3.55545e-08
5.24911e-06
3.20952e-08
5.25116e-06
2.86904e-08
2.54704e-08
5.25297e-06
5.55462e-06
1.59233e-08
5.5613e-06
3.98555e-08
5.5683e-06
5.24653e-08
5.5748e-06
5.7861e-08
5.58071e-06
5.99531e-08
5.58604e-06
5.98209e-08
5.59086e-06
5.81631e-08
5.59526e-06
5.56236e-08
5.59931e-06
5.26321e-08
5.60308e-06
4.93979e-08
5.60658e-06
4.60824e-08
5.60986e-06
4.27614e-08
5.61295e-06
3.9447e-08
5.61583e-06
3.61515e-08
5.6185e-06
3.28801e-08
5.62093e-06
2.96493e-08
5.62311e-06
2.64988e-08
2.35306e-08
5.62506e-06
5.95246e-06
1.32104e-08
5.95837e-06
3.3973e-08
5.96497e-06
4.59418e-08
5.97134e-06
5.15584e-08
5.97736e-06
5.39896e-08
5.98292e-06
5.42968e-08
5.988e-06
5.31039e-08
5.99266e-06
5.09835e-08
5.99696e-06
4.83435e-08
6.00095e-06
4.54244e-08
6.00467e-06
4.23792e-08
6.00815e-06
3.92936e-08
6.01141e-06
3.61981e-08
6.01444e-06
3.31193e-08
6.01725e-06
3.00712e-08
6.01981e-06
2.708e-08
6.02212e-06
2.41789e-08
2.14484e-08
6.02422e-06
6.37903e-06
1.09731e-08
6.38426e-06
2.86423e-08
6.39045e-06
3.97748e-08
6.39664e-06
4.5404e-08
6.40266e-06
4.80119e-08
6.40837e-06
4.86161e-08
6.41369e-06
4.78067e-08
6.41862e-06
4.6067e-08
6.42319e-06
4.37796e-08
6.42743e-06
4.11823e-08
6.4314e-06
3.84246e-08
6.4351e-06
3.55952e-08
6.43855e-06
3.27527e-08
6.44176e-06
2.99085e-08
6.44473e-06
2.71091e-08
6.44743e-06
2.4363e-08
6.44989e-06
2.17172e-08
1.92277e-08
6.45213e-06
5.74244e-06
9.33549e-09
5.74639e-06
2.46804e-08
5.75132e-06
3.48926e-08
5.75641e-06
4.03545e-08
5.76146e-06
4.30045e-08
5.76633e-06
4.37661e-08
5.77095e-06
4.32063e-08
5.77528e-06
4.17475e-08
5.77933e-06
3.97373e-08
5.78311e-06
3.74036e-08
5.78664e-06
3.48909e-08
5.78994e-06
3.23052e-08
5.79302e-06
2.96658e-08
5.79588e-06
2.70579e-08
5.79851e-06
2.4459e-08
5.80092e-06
2.19465e-08
5.80311e-06
1.9509e-08
1.72479e-08
5.80512e-06
6.99975e-06
7.73448e-09
7.00383e-06
2.05499e-08
7.00911e-06
2.96169e-08
7.01474e-06
3.47492e-08
7.02044e-06
3.73341e-08
7.02604e-06
3.81978e-08
7.03141e-06
3.78487e-08
7.03651e-06
3.66639e-08
7.04131e-06
3.49392e-08
7.04582e-06
3.28932e-08
7.05006e-06
3.06676e-08
7.05402e-06
2.83374e-08
7.05772e-06
2.59795e-08
7.06114e-06
2.36081e-08
7.06432e-06
2.1289e-08
7.06721e-06
1.90135e-08
7.06989e-06
1.68593e-08
1.48119e-08
7.07231e-06
8.53242e-06
6.13395e-09
8.53656e-06
1.63803e-08
8.54214e-06
2.40488e-08
8.54829e-06
2.86004e-08
8.55464e-06
3.10072e-08
8.56098e-06
3.187e-08
8.56715e-06
3.16972e-08
8.57306e-06
3.07517e-08
8.57868e-06
2.93257e-08
8.584e-06
2.75765e-08
8.58902e-06
2.56709e-08
8.59372e-06
2.36395e-08
8.59811e-06
2.15872e-08
8.6022e-06
1.95161e-08
8.60597e-06
1.74924e-08
8.60946e-06
1.55246e-08
8.61265e-06
1.36415e-08
1.18994e-08
8.61561e-06
1.04008e-05
4.56752e-09
1.04049e-05
1.22099e-08
1.04107e-05
1.82185e-08
1.04174e-05
2.19692e-08
1.04244e-05
2.39863e-08
1.04315e-05
2.47772e-08
1.04385e-05
2.46762e-08
1.04453e-05
2.39672e-08
1.04518e-05
2.28041e-08
1.0458e-05
2.14075e-08
1.04639e-05
1.98035e-08
1.04694e-05
1.8152e-08
1.04746e-05
1.64103e-08
1.04794e-05
1.47137e-08
1.04839e-05
1.30062e-08
1.0488e-05
1.13937e-08
1.04918e-05
9.81977e-09
8.38821e-09
1.04953e-05
1.26783e-05
3.0037e-09
1.26825e-05
8.02385e-09
1.26886e-05
1.21665e-08
1.26957e-05
1.48128e-08
1.27034e-05
1.62777e-08
1.27114e-05
1.6825e-08
1.27193e-05
1.67444e-08
1.27271e-05
1.61881e-08
1.27346e-05
1.53219e-08
1.27417e-05
1.42271e-08
1.27486e-05
1.30249e-08
1.2755e-05
1.17178e-08
1.2761e-05
1.04058e-08
1.27666e-05
9.06575e-09
1.27719e-05
7.77964e-09
1.27767e-05
6.51246e-09
1.27813e-05
5.3328e-09
4.21915e-09
1.27854e-05
1.54548e-05
1.41984e-09
1.5459e-05
3.7224e-09
1.54654e-05
5.77252e-09
1.54732e-05
7.05748e-09
1.54817e-05
7.73676e-09
1.54906e-05
7.90843e-09
1.54996e-05
7.73534e-09
1.55085e-05
7.29705e-09
1.55171e-05
6.68152e-09
1.55254e-05
5.93857e-09
1.55333e-05
5.1215e-09
1.55408e-05
4.25402e-09
1.55478e-05
3.3729e-09
1.55544e-05
2.49054e-09
1.55605e-05
1.63221e-09
1.55663e-05
8.04949e-10
1.55716e-05
2.52484e-11
-6.8421e-10
1.55765e-05
1.88393e-05
-2.77707e-10
1.8844e-05
-9.37178e-10
1.8851e-05
-1.27211e-09
1.88596e-05
-1.63771e-09
1.88693e-05
-1.96565e-09
1.88795e-05
-2.31333e-09
1.88899e-05
-2.66072e-09
1.89002e-05
-3.01798e-09
1.89102e-05
-3.37561e-09
1.89199e-05
-3.74355e-09
1.89291e-05
-4.11313e-09
1.89379e-05
-4.4903e-09
1.89461e-05
-4.86338e-09
1.89538e-05
-5.23309e-09
1.8961e-05
-5.58839e-09
1.89678e-05
-5.92608e-09
1.8974e-05
-6.23865e-09
-6.50414e-09
1.89799e-05
2.29653e-05
-2.29132e-09
2.29709e-05
-6.50785e-09
2.29793e-05
-9.73949e-09
2.29898e-05
-1.2119e-08
2.30014e-05
-1.36514e-08
2.30137e-05
-1.46303e-08
2.30261e-05
-1.51643e-08
2.30385e-05
-1.54124e-08
2.30505e-05
-1.54211e-08
2.30621e-05
-1.53158e-08
2.3073e-05
-1.5112e-08
2.30834e-05
-1.48886e-08
2.30931e-05
-1.4633e-08
2.31023e-05
-1.43941e-08
2.31108e-05
-1.41463e-08
2.31189e-05
-1.39179e-08
2.31263e-05
-1.36859e-08
-1.34491e-08
2.31333e-05
1.68124e-05
-4.00138e-09
1.68171e-05
-1.11309e-08
1.6824e-05
-1.66601e-08
1.68324e-05
-2.04935e-08
1.68416e-05
-2.28595e-08
1.68512e-05
-2.41712e-08
1.68607e-05
-2.47926e-08
1.68702e-05
-2.48043e-08
1.68791e-05
-2.45058e-08
1.68878e-05
-2.39111e-08
1.68958e-05
-2.32543e-08
1.69035e-05
-2.2483e-08
1.69105e-05
-2.17638e-08
1.69172e-05
-2.10084e-08
1.69233e-05
-2.03394e-08
1.69292e-05
-1.96626e-08
1.69345e-05
-1.90651e-08
-1.84521e-08
1.69396e-05
1.46364e-05
-5.81313e-09
1.46413e-05
-1.60038e-08
1.46485e-05
-2.37921e-08
1.46569e-05
-2.88128e-08
1.46658e-05
-3.17153e-08
1.46749e-05
-3.32367e-08
1.46839e-05
-3.37318e-08
1.46926e-05
-3.34912e-08
1.47009e-05
-3.27037e-08
1.47086e-05
-3.16608e-08
1.47158e-05
-3.04382e-08
1.47225e-05
-2.91948e-08
1.47287e-05
-2.79384e-08
1.47344e-05
-2.67648e-08
1.47398e-05
-2.56429e-08
1.47447e-05
-2.46198e-08
1.47493e-05
-2.36568e-08
-2.27638e-08
1.47536e-05
1.27422e-05
-7.83799e-09
1.27477e-05
-2.1523e-08
1.27554e-05
-3.13589e-08
1.27639e-05
-3.72424e-08
1.27727e-05
-4.04395e-08
1.27815e-05
-4.19706e-08
1.27901e-05
-4.22394e-08
1.27982e-05
-4.15332e-08
1.28058e-05
-4.02316e-08
1.28128e-05
-3.86087e-08
1.28192e-05
-3.68417e-08
1.28251e-05
-3.50467e-08
1.28304e-05
-3.33066e-08
1.28354e-05
-3.16822e-08
1.28399e-05
-3.01712e-08
1.28441e-05
-2.88145e-08
1.2848e-05
-2.75579e-08
-2.64192e-08
1.28517e-05
1.10932e-05
-1.01313e-08
1.10997e-05
-2.7927e-08
1.11079e-05
-3.95457e-08
1.11165e-05
-4.57751e-08
1.11252e-05
-4.90429e-08
1.11337e-05
-5.03998e-08
1.11418e-05
-5.02665e-08
1.11493e-05
-4.90078e-08
1.11562e-05
-4.70648e-08
1.11624e-05
-4.48142e-08
1.11681e-05
-4.24678e-08
1.11732e-05
-4.01226e-08
1.11778e-05
-3.79083e-08
1.1182e-05
-3.58379e-08
1.11858e-05
-3.39947e-08
1.11894e-05
-3.23235e-08
1.11927e-05
-3.08426e-08
-2.94837e-08
1.11958e-05
9.65806e-06
-1.29495e-08
9.66559e-06
-3.54175e-08
9.67421e-06
-4.81289e-08
9.68272e-06
-5.42184e-08
9.69111e-06
-5.73577e-08
9.69916e-06
-5.84021e-08
9.70662e-06
-5.77165e-08
9.71344e-06
-5.58006e-08
9.71958e-06
-5.3187e-08
9.72504e-06
-5.02785e-08
9.72993e-06
-4.73375e-08
9.73431e-06
-4.44754e-08
9.73824e-06
-4.1804e-08
9.74179e-06
-3.93828e-08
9.74503e-06
-3.72162e-08
9.74802e-06
-3.53071e-08
9.7508e-06
-3.36491e-08
-3.21378e-08
9.75347e-06
8.40923e-06
-1.68289e-08
8.41764e-06
-4.37894e-08
8.42647e-06
-5.69235e-08
8.43476e-06
-6.24944e-08
8.44262e-06
-6.52039e-08
8.45014e-06
-6.59225e-08
8.45702e-06
-6.4589e-08
8.46317e-06
-6.19378e-08
8.46861e-06
-5.86176e-08
8.47337e-06
-5.50246e-08
8.47753e-06
-5.14835e-08
8.48119e-06
-4.81243e-08
8.48446e-06
-4.5069e-08
8.48743e-06
-4.23409e-08
8.49014e-06
-3.99113e-08
8.49263e-06
-3.78463e-08
8.49506e-06
-3.60541e-08
-3.4438e-08
8.4973e-06
7.32344e-06
-2.29808e-08
7.33305e-06
-5.34628e-08
7.3414e-06
-6.53602e-08
7.3487e-06
-6.9806e-08
7.35575e-06
-7.21941e-08
7.36259e-06
-7.27438e-08
7.36885e-06
-7.08509e-08
7.3744e-06
-6.74748e-08
7.37924e-06
-6.34498e-08
7.38342e-06
-5.92099e-08
7.38704e-06
-5.51043e-08
7.39023e-06
-5.12942e-08
7.39312e-06
-4.79539e-08
7.39583e-06
-4.50399e-08
7.39844e-06
-4.25274e-08
7.40096e-06
-4.03814e-08
7.40344e-06
-3.85427e-08
-3.68718e-08
7.40587e-06
6.37844e-06
-3.13866e-08
6.38824e-06
-6.33673e-08
6.39489e-06
-7.21081e-08
6.40208e-06
-7.69013e-08
6.40946e-06
-7.96781e-08
6.41637e-06
-7.96616e-08
6.4228e-06
-7.72759e-08
6.42873e-06
-7.33871e-08
6.43412e-06
-6.88196e-08
6.43901e-06
-6.40929e-08
6.44358e-06
-5.96326e-08
6.44791e-06
-5.5639e-08
6.45209e-06
-5.21252e-08
6.45617e-06
-4.91166e-08
6.46016e-06
-4.65028e-08
6.46395e-06
-4.41809e-08
6.46751e-06
-4.21438e-08
-4.02447e-08
6.47096e-06
5.56007e-06
-4.60168e-08
5.57355e-06
-7.69378e-08
5.58653e-06
-8.51726e-08
5.60156e-06
-9.192e-08
5.61675e-06
-9.48879e-08
5.63166e-06
-9.45912e-08
5.64589e-06
-9.1504e-08
5.65897e-06
-8.64645e-08
5.67075e-06
-8.05846e-08
5.68096e-06
-7.42711e-08
5.68954e-06
-6.81866e-08
5.69638e-06
-6.24801e-08
5.70151e-06
-5.7272e-08
5.70506e-06
-5.26518e-08
5.70721e-06
-4.86359e-08
5.70826e-06
-4.52568e-08
5.70862e-06
-4.24414e-08
-4.04698e-08
5.70882e-06
4.88277e-06
-1.01201e-07
4.92566e-06
-1.19929e-07
4.96482e-06
-1.2442e-07
4.99338e-06
-1.2046e-07
5.01336e-06
-1.14886e-07
5.02467e-06
-1.05924e-07
5.02898e-06
-9.58284e-08
5.02747e-06
-8.49469e-08
5.01995e-06
-7.30502e-08
5.0074e-06
-6.16859e-08
4.99079e-06
-5.15502e-08
4.97129e-06
-4.29784e-08
4.9499e-06
-3.58919e-08
4.92741e-06
-3.01435e-08
4.90447e-06
-2.56933e-08
4.88182e-06
-2.25953e-08
4.85994e-06
-2.05614e-08
-1.95456e-08
4.83906e-06
4.10147e-06
3.98153e-06
3.85712e-06
3.73665e-06
3.62177e-06
3.51584e-06
3.42001e-06
3.33507e-06
3.26202e-06
3.20034e-06
3.14879e-06
3.10581e-06
3.06992e-06
3.03978e-06
3.01409e-06
2.99149e-06
2.97094e-06
2.95138e-06
-7.75042e-09
7.7746e-09
-2.11167e-08
1.34322e-08
-3.5711e-08
1.46115e-08
-4.80683e-08
1.24268e-08
-5.33786e-08
5.30028e-09
-4.58987e-08
-7.38613e-09
-2.39367e-08
-2.20118e-08
1.05833e-08
-3.44202e-08
5.33975e-08
-4.28797e-08
1.00209e-07
-4.67283e-08
1.46499e-07
-4.63505e-08
1.89585e-07
-4.3018e-08
2.27291e-07
-3.77572e-08
2.58659e-07
-3.13051e-08
2.82787e-07
-2.41705e-08
2.99474e-07
-1.66299e-08
3.08265e-07
-8.82467e-09
3.09007e-07
-6.99897e-10
3.01389e-07
7.58814e-09
2.85767e-07
1.56404e-08
2.62689e-07
2.30422e-08
2.33258e-07
2.94232e-08
1.98834e-07
3.43781e-08
1.61358e-07
3.7463e-08
1.2306e-07
3.82536e-08
8.65772e-08
3.6483e-08
5.43357e-08
3.22022e-08
2.83402e-08
2.59904e-08
9.37832e-09
1.89291e-08
-2.82866e-09
1.21809e-08
-9.17382e-09
6.32718e-09
-1.01052e-08
8.76965e-10
-5.28432e-09
-4.84995e-09
6.3908e-09
-1.17623e-08
2.65176e-08
-2.02131e-08
5.5015e-08
-2.85916e-08
8.81984e-08
-3.33263e-08
1.20223e-07
-3.20917e-08
1.45639e-07
-2.55972e-08
1.61711e-07
-1.61118e-08
1.68276e-07
-6.72275e-09
1.68163e-07
9.09183e-11
1.64295e-07
3.77591e-09
1.59936e-07
4.38348e-09
1.56908e-07
2.99267e-09
1.50894e-07
6.11304e-09
1.33312e-07
1.75989e-08
9.67299e-08
3.66593e-08
3.45937e-08
6.21048e-08
-5.15171e-08
8.60321e-08
-1.55796e-07
1.04131e-07
-2.74923e-07
1.18999e-07
-4.05666e-07
1.30647e-07
-5.44594e-07
1.38848e-07
-6.87522e-07
1.42924e-07
-8.30135e-07
1.42568e-07
-9.69233e-07
1.39136e-07
-1.10298e-06
1.33716e-07
-1.22926e-06
1.26333e-07
-1.3471e-06
1.17797e-07
-1.45648e-06
1.09422e-07
-1.55701e-06
1.00482e-07
-1.64854e-06
9.15761e-08
-1.73259e-06
8.40161e-08
-1.80995e-06
7.7407e-08
-1.88123e-06
7.12406e-08
-1.94697e-06
6.57826e-08
-2.00804e-06
6.10267e-08
-2.06483e-06
5.6839e-08
-2.11801e-06
5.31474e-08
-2.16785e-06
4.98893e-08
-2.21485e-06
4.69686e-08
-2.25915e-06
4.43525e-08
-2.30114e-06
4.19575e-08
-2.34086e-06
3.97699e-08
-2.37861e-06
3.77244e-08
-2.4144e-06
3.58157e-08
-2.44842e-06
3.39968e-08
-2.48065e-06
3.22698e-08
-2.51124e-06
3.05965e-08
-2.54018e-06
2.89841e-08
-2.56757e-06
2.74064e-08
-2.59338e-06
2.58706e-08
-2.6177e-06
2.43534e-08
-2.64051e-06
2.28596e-08
-2.66184e-06
2.13711e-08
-2.68169e-06
1.98894e-08
-2.70012e-06
1.84141e-08
-2.71719e-06
1.69564e-08
-2.73295e-06
1.5473e-08
-2.74722e-06
1.39952e-08
-2.75995e-06
1.25025e-08
-2.77109e-06
1.09941e-08
-2.78062e-06
9.47195e-09
-2.78853e-06
7.93625e-09
-2.79483e-06
6.37474e-09
-2.79949e-06
4.79777e-09
-2.80255e-06
3.17199e-09
-2.80396e-06
1.52617e-09
-2.80382e-06
-1.231e-10
-2.80231e-06
-1.54333e-09
-2.79971e-06
-2.7224e-09
-2.79602e-06
-3.83401e-09
-2.79123e-06
-4.89666e-09
-2.78538e-06
-5.94879e-09
-2.77844e-06
-6.93766e-09
-2.77052e-06
-7.94453e-09
-2.76157e-06
-8.88504e-09
-2.75173e-06
-9.84864e-09
-2.74092e-06
-1.07449e-08
-2.72927e-06
-1.16681e-08
-2.7167e-06
-1.25308e-08
-2.70333e-06
-1.3423e-08
-2.68907e-06
-1.42677e-08
-2.67402e-06
-1.51413e-08
-2.6581e-06
-1.59805e-08
-2.64142e-06
-1.68484e-08
-2.62389e-06
-1.76985e-08
-2.60554e-06
-1.85818e-08
-2.58626e-06
-1.94689e-08
-2.56608e-06
-2.03853e-08
-2.54495e-06
-2.13387e-08
-2.52285e-06
-2.2304e-08
-2.4998e-06
-2.33366e-08
-2.47569e-06
-2.43629e-08
-2.45057e-06
-2.5472e-08
-2.42426e-06
-2.65591e-08
-2.39687e-06
-2.77468e-08
-2.36817e-06
-2.89023e-08
-2.3383e-06
-3.01729e-08
-2.30701e-06
-3.1407e-08
-2.27449e-06
-3.27247e-08
-2.24051e-06
-3.39777e-08
-2.20523e-06
-3.53634e-08
-2.16842e-06
-3.66585e-08
-2.13034e-06
-3.8009e-08
-2.09084e-06
-3.92667e-08
-2.05018e-06
-4.05478e-08
-2.00829e-06
-4.17234e-08
-1.96514e-06
-4.30541e-08
-1.9206e-06
-4.44399e-08
-1.87479e-06
-4.57214e-08
-1.82773e-06
-4.69577e-08
-1.77948e-06
-4.81474e-08
-1.7301e-06
-4.92843e-08
-1.67966e-06
-5.03702e-08
-1.62823e-06
-5.13888e-08
-1.57587e-06
-5.23514e-08
-1.52265e-06
-5.32339e-08
-1.46865e-06
-5.4058e-08
-1.41393e-06
-5.47917e-08
-1.35859e-06
-5.54642e-08
-1.30268e-06
-5.60374e-08
-1.24632e-06
-5.65463e-08
-1.18954e-06
-5.69522e-08
-1.13248e-06
-5.72932e-08
-1.07516e-06
-5.75398e-08
-1.01769e-06
-5.77264e-08
-9.60087e-07
-5.78441e-08
-9.02445e-07
-5.79059e-08
-8.44766e-07
-5.79193e-08
-7.8712e-07
-5.78891e-08
-7.2952e-07
-5.78184e-08
-6.72011e-07
-5.77179e-08
-6.14616e-07
-5.75836e-08
-5.57365e-07
-5.74217e-08
-5.00293e-07
-5.72306e-08
-4.43405e-07
-5.70195e-08
-3.86748e-07
-5.67844e-08
-3.30301e-07
-5.65362e-08
-2.74117e-07
-5.62747e-08
-2.18191e-07
-5.59707e-08
-1.62619e-07
-5.56169e-08
-1.07426e-07
-5.51858e-08
-5.28634e-08
-5.4557e-08
6.39623e-10
-5.34466e-08
5.24747e-08
-5.17632e-08
1.00937e-07
-4.8303e-08
1.45023e-07
-4.3889e-08
-1.8418e-08
1.63518e-07
-3.4208e-09
1.12424e-08
-9.26741e-09
1.9383e-08
-1.19796e-08
1.7354e-08
-4.72265e-09
5.28757e-09
1.70496e-08
-1.6494e-08
5.29996e-08
-4.32639e-08
9.86973e-08
-6.77448e-08
1.48925e-07
-8.46031e-08
1.98562e-07
-9.25472e-08
2.44615e-07
-9.27432e-08
2.85488e-07
-8.72484e-08
3.20631e-07
-7.81275e-08
3.49816e-07
-6.69626e-08
3.73332e-07
-5.47926e-08
3.91392e-07
-4.22476e-08
4.04458e-07
-2.96695e-08
4.12843e-07
-1.72266e-08
4.17171e-07
-5.00715e-09
4.1772e-07
7.02256e-09
4.14405e-07
1.89612e-08
4.0669e-07
3.07371e-08
3.94029e-07
4.20772e-08
3.75864e-07
5.2516e-08
3.51927e-07
6.13871e-08
3.22287e-07
6.78698e-08
2.87651e-07
7.11089e-08
2.49412e-07
7.04205e-08
2.09845e-07
6.55527e-08
1.71948e-07
5.68109e-08
1.39206e-07
4.49133e-08
1.14884e-07
3.0642e-08
1.01206e-07
1.4529e-08
9.92572e-08
-2.92336e-09
1.08523e-07
-2.10811e-08
1.26976e-07
-3.87274e-08
1.4954e-07
-5.1209e-08
1.69336e-07
-5.32247e-08
1.81611e-07
-4.44059e-08
1.84608e-07
-2.87012e-08
1.78569e-07
-1.009e-08
1.64601e-07
7.15441e-09
1.44751e-07
1.99727e-08
1.14701e-07
3.37664e-08
6.55309e-08
5.36186e-08
-1.17507e-08
8.02892e-08
-1.19603e-07
1.14011e-07
-2.51611e-07
1.49634e-07
-3.98017e-07
1.83073e-07
-5.49863e-07
2.13943e-07
-7.03748e-07
2.39889e-07
-8.5823e-07
2.58566e-07
-1.0098e-06
2.70522e-07
-1.15519e-06
2.75996e-07
-1.29133e-06
2.7495e-07
-1.41608e-06
2.67644e-07
-1.52867e-06
2.55133e-07
-1.62891e-06
2.39374e-07
-1.71722e-06
2.22008e-07
-1.79504e-06
2.04156e-07
-1.86403e-06
1.86771e-07
-1.92518e-06
1.70579e-07
-1.98031e-06
1.55609e-07
-2.03076e-06
1.42029e-07
-2.07696e-06
1.30217e-07
-2.11951e-06
1.19971e-07
-2.15925e-06
1.10971e-07
-2.19656e-06
1.03106e-07
-2.23178e-06
9.62351e-08
-2.26511e-06
9.01845e-08
-2.29677e-06
8.4812e-08
-2.32687e-06
8.00021e-08
-2.35554e-06
7.56414e-08
-2.38282e-06
7.16529e-08
-2.40882e-06
6.79561e-08
-2.43353e-06
6.45018e-08
-2.45705e-06
6.12337e-08
-2.47935e-06
5.8124e-08
-2.50048e-06
5.51333e-08
-2.52044e-06
5.22453e-08
-2.53927e-06
4.94319e-08
-2.55695e-06
4.66846e-08
-2.57352e-06
4.39837e-08
-2.58895e-06
4.1324e-08
-2.60326e-06
3.86893e-08
-2.61645e-06
3.60745e-08
-2.62852e-06
3.34671e-08
-2.63947e-06
3.08627e-08
-2.64933e-06
2.82691e-08
-2.65818e-06
2.56667e-08
-2.66597e-06
2.30665e-08
-2.67263e-06
2.04468e-08
-2.67811e-06
1.78103e-08
-2.68238e-06
1.51738e-08
-2.68547e-06
1.25311e-08
-2.6874e-06
9.90374e-09
-2.68823e-06
7.28909e-09
-2.68804e-06
4.71097e-09
-2.68693e-06
2.17084e-09
-2.68503e-06
-2.88372e-10
-2.68247e-06
-2.65489e-09
-2.67912e-06
-4.91577e-09
-2.67479e-06
-7.13523e-09
-2.66938e-06
-9.30679e-09
-2.66293e-06
-1.14295e-08
-2.6554e-06
-1.34916e-08
-2.64687e-06
-1.54978e-08
-2.63732e-06
-1.74631e-08
-2.62682e-06
-1.93743e-08
-2.61538e-06
-2.12501e-08
-2.60305e-06
-2.30706e-08
-2.58983e-06
-2.48653e-08
-2.57576e-06
-2.66123e-08
-2.56085e-06
-2.83489e-08
-2.5451e-06
-3.00512e-08
-2.52854e-06
-3.17586e-08
-2.51115e-06
-3.3447e-08
-2.49294e-06
-3.51598e-08
-2.47391e-06
-3.68737e-08
-2.45402e-06
-3.86297e-08
-2.43322e-06
-4.04109e-08
-2.4115e-06
-4.2253e-08
-2.38883e-06
-4.41477e-08
-2.36519e-06
-4.61126e-08
-2.34055e-06
-4.81501e-08
-2.31487e-06
-5.02505e-08
-2.28811e-06
-5.24334e-08
-2.26021e-06
-5.46732e-08
-2.23113e-06
-5.7006e-08
-2.20083e-06
-5.93866e-08
-2.16928e-06
-6.18643e-08
-2.13643e-06
-6.43736e-08
-2.10227e-06
-6.6963e-08
-2.06672e-06
-6.9563e-08
-2.02982e-06
-7.22475e-08
-1.9915e-06
-7.49093e-08
-1.95181e-06
-7.76057e-08
-1.91071e-06
-8.02514e-08
-1.86826e-06
-8.28944e-08
-1.8244e-06
-8.54895e-08
-1.77925e-06
-8.81325e-08
-1.73288e-06
-9.07391e-08
-1.68528e-06
-9.32649e-08
-1.63647e-06
-9.56898e-08
-1.58652e-06
-9.80352e-08
-1.53548e-06
-1.00258e-07
-1.48344e-06
-1.02386e-07
-1.43045e-06
-1.04364e-07
-1.3766e-06
-1.06234e-07
-1.32193e-06
-1.07935e-07
-1.26656e-06
-1.09518e-07
-1.21052e-06
-1.10919e-07
-1.15393e-06
-1.12195e-07
-1.09683e-06
-1.13278e-07
-1.03934e-06
-1.14228e-07
-9.81501e-07
-1.14979e-07
-9.23426e-07
-1.15598e-07
-8.65152e-07
-1.16035e-07
-8.06778e-07
-1.16352e-07
-7.48335e-07
-1.16525e-07
-6.89896e-07
-1.16596e-07
-6.3149e-07
-1.16558e-07
-5.73165e-07
-1.16447e-07
-5.14944e-07
-1.16252e-07
-4.56857e-07
-1.16006e-07
-3.98927e-07
-1.15697e-07
-3.41175e-07
-1.15342e-07
-2.83628e-07
-1.14933e-07
-2.26289e-07
-1.14493e-07
-1.69187e-07
-1.14011e-07
-1.12313e-07
-1.13508e-07
-5.56887e-08
-1.12989e-07
7.12473e-10
-1.12428e-07
5.68324e-08
-1.11785e-07
1.12578e-07
-1.1094e-07
1.67729e-07
-1.09713e-07
2.22094e-07
-1.07781e-07
2.74999e-07
-1.0463e-07
3.25932e-07
-9.9145e-08
3.71804e-07
-8.96534e-08
-6.17793e-08
4.15225e-07
2.80162e-10
1.09941e-08
4.00028e-09
1.57359e-08
1.83256e-08
3.04336e-09
5.07098e-08
-2.70505e-08
9.96784e-08
-6.54772e-08
1.56163e-07
-9.97168e-08
2.10589e-07
-1.22189e-07
2.57696e-07
-1.31682e-07
2.95805e-07
-1.30672e-07
3.25662e-07
-1.22574e-07
3.48686e-07
-1.10285e-07
3.66409e-07
-9.58271e-08
3.79881e-07
-8.04452e-08
3.89946e-07
-6.48374e-08
3.97059e-07
-4.93708e-08
4.01634e-07
-3.42281e-08
4.03891e-07
-1.94938e-08
4.04112e-07
-5.21777e-09
4.02538e-07
8.58624e-09
3.99551e-07
2.19556e-08
3.95351e-07
3.49239e-08
3.8997e-07
4.7458e-08
3.83071e-07
5.93996e-08
3.74057e-07
7.03936e-08
3.62065e-07
7.98426e-08
3.46263e-07
8.68981e-08
3.2614e-07
9.05256e-08
3.01999e-07
8.96814e-08
2.75202e-07
8.35972e-08
2.48157e-07
7.19525e-08
2.23798e-07
5.5e-08
2.0476e-07
3.35568e-08
1.92695e-07
9.13131e-09
1.87153e-07
-1.55598e-08
1.83542e-07
-3.51569e-08
1.74761e-07
-4.24493e-08
1.57075e-07
-3.55834e-08
1.30606e-07
-1.79396e-08
9.59837e-08
5.87852e-09
5.15594e-08
3.43606e-08
-7.80363e-09
6.65119e-08
-8.85946e-08
1.00795e-07
-1.93488e-07
1.38686e-07
-3.2011e-07
1.80265e-07
-4.62828e-07
2.23031e-07
-6.12638e-07
2.63836e-07
-7.63001e-07
3.00012e-07
-9.09266e-07
3.29341e-07
-1.04627e-06
3.50952e-07
-1.17097e-06
3.64572e-07
-1.28253e-06
3.70114e-07
-1.38033e-06
3.68303e-07
-1.46439e-06
3.60037e-07
-1.53583e-06
3.4637e-07
-1.59678e-06
3.2857e-07
-1.64979e-06
3.0813e-07
-1.69695e-06
2.86522e-07
-1.73985e-06
2.64896e-07
-1.77978e-06
2.44083e-07
-1.81767e-06
2.24646e-07
-1.85394e-06
2.06848e-07
-1.8891e-06
1.90765e-07
-1.92344e-06
1.76368e-07
-1.95687e-06
1.63652e-07
-1.98936e-06
1.52458e-07
-2.02094e-06
1.42554e-07
-2.0516e-06
1.33774e-07
-2.08132e-06
1.25957e-07
-2.11007e-06
1.18944e-07
-2.13785e-06
1.12596e-07
-2.16463e-06
1.06796e-07
-2.19043e-06
1.01443e-07
-2.21521e-06
9.64534e-08
-2.239e-06
9.17555e-08
-2.26179e-06
8.72951e-08
-2.28357e-06
8.30243e-08
-2.30435e-06
7.89075e-08
-2.32412e-06
7.4913e-08
-2.34289e-06
7.10179e-08
-2.36065e-06
6.72e-08
-2.3774e-06
6.34445e-08
-2.39315e-06
5.97354e-08
-2.40787e-06
5.60623e-08
-2.42159e-06
5.24117e-08
-2.43428e-06
4.87748e-08
-2.44594e-06
4.514e-08
-2.45656e-06
4.15049e-08
-2.46619e-06
3.78593e-08
-2.47482e-06
3.42132e-08
-2.48246e-06
3.05407e-08
-2.48903e-06
2.68552e-08
-2.49448e-06
2.31561e-08
-2.49881e-06
1.94414e-08
-2.50201e-06
1.57368e-08
-2.50412e-06
1.20424e-08
-2.50514e-06
8.38946e-09
-2.50512e-06
4.77534e-09
-2.50408e-06
1.2367e-09
-2.50207e-06
-2.2332e-09
-2.49908e-06
-5.61018e-09
-2.49508e-06
-8.92477e-09
-2.49006e-06
-1.21894e-08
-2.48399e-06
-1.53946e-08
-2.47691e-06
-1.85357e-08
-2.46881e-06
-2.1587e-08
-2.45973e-06
-2.45747e-08
-2.44968e-06
-2.74743e-08
-2.43874e-06
-3.0315e-08
-2.42688e-06
-3.307e-08
-2.41418e-06
-3.5771e-08
-2.40062e-06
-3.83987e-08
-2.38626e-06
-4.09872e-08
-2.37108e-06
-4.3526e-08
-2.35513e-06
-4.60476e-08
-2.33836e-06
-4.85477e-08
-2.32083e-06
-5.10563e-08
-2.30248e-06
-5.35759e-08
-2.28333e-06
-5.61334e-08
-2.26333e-06
-5.87356e-08
-2.24245e-06
-6.1403e-08
-2.22067e-06
-6.41504e-08
-2.19795e-06
-6.69877e-08
-2.17428e-06
-6.99333e-08
-2.14959e-06
-7.29798e-08
-2.12387e-06
-7.61432e-08
-2.09705e-06
-7.94108e-08
-2.0691e-06
-8.27984e-08
-2.03995e-06
-8.62899e-08
-2.0096e-06
-8.98953e-08
-1.97797e-06
-9.3596e-08
-1.94507e-06
-9.73926e-08
-1.91081e-06
-1.01264e-07
-1.87522e-06
-1.05205e-07
-1.83823e-06
-1.09201e-07
-1.79989e-06
-1.13223e-07
-1.76014e-06
-1.17253e-07
-1.71904e-06
-1.21265e-07
-1.67658e-06
-1.25244e-07
-1.63279e-06
-1.2919e-07
-1.58773e-06
-1.33108e-07
-1.54147e-06
-1.36951e-07
-1.49401e-06
-1.40682e-07
-1.44539e-06
-1.44273e-07
-1.39567e-06
-1.47716e-07
-1.34492e-06
-1.50984e-07
-1.2932e-06
-1.54073e-07
-1.24059e-06
-1.5696e-07
-1.18716e-06
-1.59643e-07
-1.13299e-06
-1.62101e-07
-1.07816e-06
-1.64342e-07
-1.02274e-06
-1.66346e-07
-9.66809e-07
-1.68124e-07
-9.10446e-07
-1.69656e-07
-8.53729e-07
-1.70953e-07
-7.96733e-07
-1.71999e-07
-7.39534e-07
-1.72812e-07
-6.82199e-07
-1.73397e-07
-6.24793e-07
-1.73775e-07
-5.67374e-07
-1.73972e-07
-5.09989e-07
-1.73998e-07
-4.52683e-07
-1.73887e-07
-3.95484e-07
-1.73656e-07
-3.38425e-07
-1.73326e-07
-2.81521e-07
-1.72912e-07
-2.24797e-07
-1.7243e-07
-1.6826e-07
-1.71874e-07
-1.11934e-07
-1.71263e-07
-5.58166e-08
-1.70603e-07
9.12214e-11
-1.69919e-07
5.57985e-08
-1.69204e-07
1.11276e-07
-1.68464e-07
1.6652e-07
-1.67658e-07
2.21483e-07
-1.66744e-07
2.76121e-07
-1.65566e-07
3.30322e-07
-1.63912e-07
3.83922e-07
-1.61372e-07
4.36583e-07
-1.57288e-07
4.87956e-07
-1.50496e-07
5.37207e-07
-1.38879e-07
-1.12259e-07
5.8768e-07
8.94065e-12
1.09834e-08
1.29808e-08
2.7921e-09
5.1486e-08
-3.54809e-08
1.11295e-07
-8.68355e-08
1.75815e-07
-1.30015e-07
2.31481e-07
-1.55359e-07
2.72816e-07
-1.6354e-07
3.00784e-07
-1.59625e-07
3.18755e-07
-1.48655e-07
3.30297e-07
-1.34092e-07
3.37887e-07
-1.17885e-07
3.43109e-07
-1.01027e-07
3.46672e-07
-8.40174e-08
3.48972e-07
-6.71176e-08
3.50069e-07
-5.04761e-08
3.50051e-07
-3.41935e-08
3.48893e-07
-1.83438e-08
3.46682e-07
-2.99316e-09
3.43451e-07
1.18106e-08
3.3938e-07
2.60345e-08
3.34649e-07
3.96478e-08
3.29504e-07
5.26068e-08
3.24066e-07
6.48265e-08
3.18336e-07
7.61213e-08
3.12015e-07
8.61501e-08
3.04579e-07
9.43243e-08
2.95299e-07
9.97873e-08
2.8353e-07
1.01439e-07
2.68993e-07
9.81198e-08
2.51992e-07
8.89434e-08
2.33565e-07
7.3412e-08
2.15075e-07
5.20295e-08
1.96809e-07
2.73568e-08
1.75033e-07
6.18234e-09
1.43022e-07
-3.19672e-09
9.85881e-08
1.96561e-09
4.29408e-08
2.00226e-08
-2.45676e-08
4.95708e-08
-1.06845e-07
8.81514e-08
-2.05195e-07
1.32728e-07
-3.19079e-07
1.8041e-07
-4.4678e-07
2.2852e-07
-5.8345e-07
2.75376e-07
-7.22646e-07
3.19484e-07
-8.58383e-07
3.58788e-07
-9.85214e-07
3.90683e-07
-1.09909e-06
4.13904e-07
-1.1984e-06
4.28654e-07
-1.28261e-06
4.35174e-07
-1.3523e-06
4.34261e-07
-1.40917e-06
4.26978e-07
-1.45533e-06
4.1446e-07
-1.4932e-06
3.97895e-07
-1.52525e-06
3.78418e-07
-1.55382e-06
3.57129e-07
-1.58075e-06
3.35058e-07
-1.60729e-06
3.13052e-07
-1.63413e-06
2.91733e-07
-1.6616e-06
2.71545e-07
-1.68973e-06
2.52769e-07
-1.7184e-06
2.35517e-07
-1.74746e-06
2.19823e-07
-1.77673e-06
2.05633e-07
-1.80596e-06
1.92878e-07
-1.83494e-06
1.81436e-07
-1.86352e-06
1.7114e-07
-1.89159e-06
1.61843e-07
-1.91903e-06
1.53404e-07
-1.94577e-06
1.4569e-07
-1.97175e-06
1.3858e-07
-1.99691e-06
1.31973e-07
-2.02124e-06
1.25776e-07
-2.04469e-06
1.19914e-07
-2.06724e-06
1.14324e-07
-2.08889e-06
1.08954e-07
-2.10962e-06
1.03762e-07
-2.12941e-06
9.87133e-08
-2.14827e-06
9.37802e-08
-2.16619e-06
8.894e-08
-2.18315e-06
8.41729e-08
-2.19916e-06
7.9463e-08
-2.21422e-06
7.47954e-08
-2.22831e-06
7.01575e-08
-2.24143e-06
6.55372e-08
-2.25357e-06
6.09228e-08
-2.26473e-06
5.63053e-08
-2.2749e-06
5.16729e-08
-2.28409e-06
4.70281e-08
-2.29233e-06
4.23523e-08
-2.29957e-06
3.76657e-08
-2.30578e-06
3.29414e-08
-2.31091e-06
2.81968e-08
-2.31493e-06
2.34339e-08
-2.31787e-06
1.86723e-08
-2.3197e-06
1.39226e-08
-2.32045e-06
9.21134e-09
-2.32013e-06
4.5449e-09
-2.31876e-06
-4.75523e-11
-2.31635e-06
-4.57212e-09
-2.31291e-06
-9.01015e-09
-2.30844e-06
-1.33792e-08
-2.30296e-06
-1.76748e-08
-2.29646e-06
-2.18892e-08
-2.28897e-06
-2.60147e-08
-2.28051e-06
-3.00331e-08
-2.2711e-06
-3.39605e-08
-2.26078e-06
-3.77731e-08
-2.24957e-06
-4.14987e-08
-2.23752e-06
-4.51087e-08
-2.22463e-06
-4.86435e-08
-2.21095e-06
-5.20771e-08
-2.19649e-06
-5.54604e-08
-2.18125e-06
-5.87727e-08
-2.16526e-06
-6.20687e-08
-2.14851e-06
-6.53325e-08
-2.131e-06
-6.86207e-08
-2.11271e-06
-7.1923e-08
-2.09364e-06