/*--------------------------------*- C++ -*----------------------------------*\
  =========                 |
  \\      /  F ield         | OpenFOAM: The Open Source CFD Toolbox
   \\    /   O peration     | Website:  https://openfoam.org
    \\  /    A nd           | Version:  13
     \\/     M anipulation  |
\*---------------------------------------------------------------------------*/
FoamFile
{
    format      ascii;
    class       volVectorField;
    location    "400";
    object      U;
}
// * * * * * * * * * * * * * * * * * * * * * * * * * * * * * * * * * * * * * //

dimensions      [0 1 -1 0 0 0 0];

internalField   nonuniform List<vector> 
12225
(
(9.79052 0.0533667 0)
(9.36909 0.102234 0)
(8.94742 0.103644 0)
(8.55863 0.0920051 0)
(8.22505 0.0735591 0)
(7.9481 0.0595949 0)
(7.71052 0.0515635 0)
(7.50818 0.0427067 0)
(7.34335 0.0389264 0)
(7.20631 0.032446 0)
(7.08892 0.0234377 0)
(6.9939 0.0158114 0)
(6.90845 0.0150583 0)
(6.83832 0.0156962 0)
(6.77857 0.00714563 0)
(6.73103 0.00110053 0)
(6.6923 -0.00384288 0)
(6.66967 0.00755167 0)
(10.0655 0.0516108 0)
(10.2046 0.0807513 0)
(10.2823 0.0797644 0)
(10.3052 0.0779695 0)
(10.2926 0.0767431 0)
(10.2546 0.0731427 0)
(10.1951 0.0682315 0)
(10.1225 0.0631223 0)
(10.0391 0.057162 0)
(9.94447 0.0526627 0)
(9.85849 0.049149 0)
(9.77057 0.0457184 0)
(9.68982 0.0418632 0)
(9.60553 0.038333 0)
(9.52961 0.0360614 0)
(9.45797 0.0334785 0)
(9.39217 0.0289824 0)
(9.32839 0.0195104 0)
(10.0218 0.0425342 0)
(10.0761 0.0687266 0)
(10.1234 0.0712402 0)
(10.1584 0.0732279 0)
(10.1878 0.0747073 0)
(10.213 0.0753726 0)
(10.2338 0.0751635 0)
(10.249 0.073904 0)
(10.2577 0.0724223 0)
(10.2599 0.0698771 0)
(10.2575 0.0672016 0)
(10.2505 0.0651255 0)
(10.2404 0.0631732 0)
(10.2275 0.0606602 0)
(10.2126 0.0574741 0)
(10.1954 0.0538313 0)
(10.1765 0.0487263 0)
(10.155 0.0430069 0)
(10.0094 0.0319598 0)
(10.0441 0.0573088 0)
(10.0752 0.0641381 0)
(10.0965 0.0672713 0)
(10.1144 0.0684308 0)
(10.1302 0.0681071 0)
(10.1442 0.0669597 0)
(10.1569 0.065256 0)
(10.1692 0.0638871 0)
(10.1806 0.0620173 0)
(10.1909 0.0598159 0)
(10.1999 0.0579527 0)
(10.2084 0.0564577 0)
(10.2164 0.0546092 0)
(10.2235 0.0519695 0)
(10.2296 0.0490501 0)
(10.2346 0.0454523 0)
(10.238 0.0415278 0)
(10.0051 0.02472 0)
(10.0314 0.0504666 0)
(10.0565 0.0591257 0)
(10.0744 0.0622962 0)
(10.0887 0.0637002 0)
(10.1014 0.063872 0)
(10.1125 0.0631537 0)
(10.1223 0.0620016 0)
(10.1313 0.0608351 0)
(10.1396 0.0591877 0)
(10.147 0.0572601 0)
(10.1541 0.0555137 0)
(10.161 0.0539109 0)
(10.1679 0.0520202 0)
(10.1744 0.0496182 0)
(10.1806 0.0468389 0)
(10.1862 0.0435823 0)
(10.1911 0.0401333 0)
(10.0034 0.019866 0)
(10.0233 0.0439493 0)
(10.0447 0.0535411 0)
(10.0611 0.0574018 0)
(10.074 0.0593487 0)
(10.0858 0.0601809 0)
(10.0964 0.059975 0)
(10.1055 0.0590422 0)
(10.1136 0.0577979 0)
(10.121 0.0561918 0)
(10.1277 0.0544162 0)
(10.134 0.0526589 0)
(10.14 0.0508785 0)
(10.1459 0.0488698 0)
(10.1514 0.046497 0)
(10.1567 0.0438012 0)
(10.1615 0.0407332 0)
(10.1656 0.0375381 0)
(10.0025 0.0162313 0)
(10.0174 0.038064 0)
(10.036 0.0480733 0)
(10.0513 0.0526739 0)
(10.0633 0.0551718 0)
(10.0742 0.0563218 0)
(10.0843 0.0563695 0)
(10.0932 0.0556911 0)
(10.1012 0.0546619 0)
(10.1085 0.0532959 0)
(10.1151 0.0516912 0)
(10.1212 0.0499976 0)
(10.1271 0.0482308 0)
(10.1327 0.0462473 0)
(10.1379 0.0439816 0)
(10.1428 0.0414122 0)
(10.1471 0.0385357 0)
(10.151 0.0355942 0)
(10.0018 0.0133591 0)
(10.0132 0.0328584 0)
(10.0292 0.0430273 0)
(10.0435 0.048179 0)
(10.055 0.0510602 0)
(10.0652 0.0523824 0)
(10.0747 0.0526113 0)
(10.0833 0.0521739 0)
(10.0911 0.051298 0)
(10.0982 0.0500533 0)
(10.1048 0.0486053 0)
(10.111 0.0470284 0)
(10.1168 0.0452889 0)
(10.1223 0.043347 0)
(10.1274 0.0411451 0)
(10.1321 0.0386846 0)
(10.1363 0.0360037 0)
(10.14 0.0332886 0)
(10.0013 0.0110526 0)
(10.0102 0.0282429 0)
(10.0237 0.0381727 0)
(10.0368 0.043525 0)
(10.0479 0.0467366 0)
(10.0578 0.0483741 0)
(10.0669 0.0488433 0)
(10.0753 0.0485542 0)
(10.0829 0.0478007 0)
(10.0899 0.0467069 0)
(10.0964 0.045391 0)
(10.1025 0.0438876 0)
(10.1082 0.0422017 0)
(10.1136 0.0403167 0)
(10.1186 0.0382201 0)
(10.1232 0.0359188 0)
(10.1274 0.033447 0)
(10.1311 0.0309442 0)
(10.001 0.0091664 0)
(10.008 0.0241048 0)
(10.0193 0.0335328 0)
(10.031 0.03891 0)
(10.0415 0.042256 0)
(10.0511 0.0441242 0)
(10.06 0.044841 0)
(10.0683 0.0447683 0)
(10.0758 0.0441752 0)
(10.0827 0.0432143 0)
(10.0892 0.0419904 0)
(10.0952 0.0405682 0)
(10.1009 0.0389532 0)
(10.1062 0.0371535 0)
(10.1111 0.0351679 0)
(10.1156 0.0330108 0)
(10.1197 0.0307208 0)
(10.1234 0.028409 0)
(10.0007 0.0076202 0)
(10.0063 0.0204457 0)
(10.0158 0.0291857 0)
(10.0262 0.0344483 0)
(10.0359 0.0377908 0)
(10.0451 0.0397501 0)
(10.0537 0.0406316 0)
(10.0618 0.0407304 0)
(10.0692 0.0402902 0)
(10.0761 0.0394656 0)
(10.0825 0.0383595 0)
(10.0885 0.0370332 0)
(10.0942 0.0355171 0)
(10.0994 0.033817 0)
(10.1042 0.0319561 0)
(10.1087 0.0299463 0)
(10.1127 0.0278321 0)
(10.1164 0.0256973 0)
(10.0006 0.00640275 0)
(10.0052 0.0174668 0)
(10.0133 0.0254901 0)
(10.0225 0.0305361 0)
(10.0315 0.0337823 0)
(10.0402 0.0357336 0)
(10.0484 0.0366864 0)
(10.0563 0.0368844 0)
(10.0636 0.0365486 0)
(10.0704 0.035827 0)
(10.0768 0.0348169 0)
(10.0827 0.0335862 0)
(10.0883 0.0321576 0)
(10.0934 0.0305674 0)
(10.0982 0.0288199 0)
(10.1026 0.0269566 0)
(10.1066 0.0249958 0)
(10.1103 0.0230356 0)
(10.0005 0.00535964 0)
(10.0043 0.0147543 0)
(10.0112 0.0219611 0)
(10.0195 0.0266824 0)
(10.0277 0.0297655 0)
(10.0358 0.0316559 0)
(10.0437 0.0326285 0)
(10.0512 0.0328956 0)
(10.0583 0.0326459 0)
(10.0649 0.0320198 0)
(10.0712 0.0311106 0)
(10.077 0.0299797 0)
(10.0825 0.0286556 0)
(10.0876 0.0271789 0)
(10.0923 0.0255625 0)
(10.0967 0.0238413 0)
(10.1006 0.0220517 0)
(10.1042 0.0202525 0)
(10.0004 0.0043554 0)
(10.0035 0.0120218 0)
(10.0093 0.0182286 0)
(10.0166 0.0224643 0)
(10.0241 0.0252828 0)
(10.0316 0.0270251 0)
(10.0389 0.0279593 0)
(10.046 0.028248 0)
(10.0528 0.028062 0)
(10.0592 0.0275139 0)
(10.0653 0.0267082 0)
(10.071 0.0256704 0)
(10.0763 0.0244732 0)
(10.0813 0.0231123 0)
(10.0859 0.0216517 0)
(10.0901 0.0200868 0)
(10.0941 0.0184808 0)
(10.0976 0.0168624 0)
(10.0003 0.00336787 0)
(10.0029 0.00928963 0)
(10.0077 0.0143162 0)
(10.014 0.0178828 0)
(10.0207 0.0202975 0)
(10.0276 0.021805 0)
(10.0344 0.0226233 0)
(10.0411 0.0228905 0)
(10.0475 0.0227291 0)
(10.0536 0.0222558 0)
(10.0594 0.0215277 0)
(10.0649 0.0206113 0)
(10.07 0.0195221 0)
(10.0748 0.0183192 0)
(10.0793 0.0170023 0)
(10.0834 0.0156322 0)
(10.0872 0.0141936 0)
(10.0907 0.0127883 0)
(10.0003 0.00238823 0)
(10.0023 0.00655516 0)
(10.0064 0.0102498 0)
(10.0118 0.0129534 0)
(10.0178 0.0148051 0)
(10.0241 0.0159609 0)
(10.0304 0.0165725 0)
(10.0366 0.0167517 0)
(10.0426 0.0165796 0)
(10.0484 0.0161503 0)
(10.0539 0.0155021 0)
(10.0592 0.0146948 0)
(10.0641 0.0137418 0)
(10.0687 0.0126929 0)
(10.073 0.0115557 0)
(10.077 0.0103689 0)
(10.0807 0.00913945 0)
(10.084 0.0079218 0)
(10.0002 0.00139831 0)
(10.002 0.00378365 0)
(10.0054 0.00600978 0)
(10.0101 0.00764711 0)
(10.0155 0.00877112 0)
(10.0212 0.00943088 0)
(10.0271 0.0097389 0)
(10.0329 0.00974441 0)
(10.0386 0.00951901 0)
(10.0441 0.00909202 0)
(10.0493 0.00852422 0)
(10.0543 0.00781383 0)
(10.059 0.00701917 0)
(10.0634 0.00612767 0)
(10.0675 0.00519362 0)
(10.0714 0.0041996 0)
(10.0749 0.00319634 0)
(10.0782 0.00218743 0)
(10.0002 0.000360357 0)
(10.0017 0.00087007 0)
(10.0048 0.00146342 0)
(10.0091 0.00183718 0)
(10.0141 0.0020403 0)
(10.0194 0.00205939 0)
(10.0249 0.00194006 0)
(10.0304 0.00169285 0)
(10.0358 0.00134395 0)
(10.0411 0.000899837 0)
(10.0461 0.000379768 0)
(10.0509 -0.000213807 0)
(10.0554 -0.000862159 0)
(10.0597 -0.00156207 0)
(10.0636 -0.0022965 0)
(10.0673 -0.00305989 0)
(10.0708 -0.00383816 0)
(10.0739 -0.00460115 0)
(10.0002 -0.000817078 0)
(10.0017 -0.00242263 0)
(10.0047 -0.0037103 0)
(10.0089 -0.00482832 0)
(10.0139 -0.00572344 0)
(10.0191 -0.00648576 0)
(10.0246 -0.00712462 0)
(10.03 -0.007692 0)
(10.0353 -0.00819056 0)
(10.0405 -0.00866938 0)
(10.0454 -0.00912532 0)
(10.05 -0.00959546 0)
(10.0544 -0.0100664 0)
(10.0586 -0.0105638 0)
(10.0624 -0.011068 0)
(10.066 -0.0115939 0)
(10.0694 -0.0121237 0)
(10.0724 -0.0126429 0)
(10.0002 -0.00199795 0)
(10.002 -0.0057132 0)
(10.0054 -0.00887318 0)
(10.0101 -0.0114363 0)
(10.0155 -0.0133759 0)
(10.0211 -0.0148434 0)
(10.0269 -0.0159536 0)
(10.0325 -0.0167565 0)
(10.038 -0.0173595 0)
(10.0433 -0.0177935 0)
(10.0483 -0.0181527 0)
(10.053 -0.0184386 0)
(10.0573 -0.0187222 0)
(10.0614 -0.0189813 0)
(10.0652 -0.0192687 0)
(10.0688 -0.0195494 0)
(10.0721 -0.0198634 0)
(10.0751 -0.0201549 0)
(10.0003 -0.0031139 0)
(10.0024 -0.00880338 0)
(10.0065 -0.0136365 0)
(10.012 -0.0173588 0)
(10.0181 -0.0200755 0)
(10.0244 -0.0220393 0)
(10.0306 -0.0234342 0)
(10.0367 -0.0243454 0)
(10.0425 -0.0249161 0)
(10.048 -0.0252381 0)
(10.0531 -0.0254239 0)
(10.0578 -0.0255107 0)
(10.0622 -0.0255754 0)
(10.0663 -0.0256206 0)
(10.0701 -0.0256967 0)
(10.0736 -0.0257827 0)
(10.0769 -0.0259117 0)
(10.0798 -0.026037 0)
(10.0004 -0.00432772 0)
(10.0031 -0.0121864 0)
(10.0083 -0.0186479 0)
(10.015 -0.0233593 0)
(10.022 -0.0266628 0)
(10.029 -0.0289951 0)
(10.0358 -0.0305387 0)
(10.0424 -0.0314483 0)
(10.0486 -0.0318786 0)
(10.0543 -0.0320132 0)
(10.0596 -0.0319496 0)
(10.0644 -0.0317954 0)
(10.0688 -0.0315875 0)
(10.0729 -0.0314117 0)
(10.0766 -0.0312513 0)
(10.08 -0.031166 0)
(10.0832 -0.0311131 0)
(10.0861 -0.0311172 0)
(10.0005 -0.00574431 0)
(10.0041 -0.0160434 0)
(10.0109 -0.0240212 0)
(10.019 -0.029492 0)
(10.027 -0.0332044 0)
(10.0347 -0.0357367 0)
(10.0422 -0.0373047 0)
(10.0493 -0.038051 0)
(10.0558 -0.0382416 0)
(10.0617 -0.038096 0)
(10.0671 -0.037737 0)
(10.072 -0.0372739 0)
(10.0763 -0.0367994 0)
(10.0803 -0.036348 0)
(10.0839 -0.0359833 0)
(10.0872 -0.0357104 0)
(10.0903 -0.0355221 0)
(10.0931 -0.0354032 0)
(10.0008 -0.00735011 0)
(10.0055 -0.0207228 0)
(10.0144 -0.0299665 0)
(10.0241 -0.0357099 0)
(10.0329 -0.0396128 0)
(10.0414 -0.0421964 0)
(10.0494 -0.0436229 0)
(10.0568 -0.0440949 0)
(10.0636 -0.0439078 0)
(10.0696 -0.0433699 0)
(10.0749 -0.0426601 0)
(10.0797 -0.0418513 0)
(10.084 -0.041085 0)
(10.0879 -0.0404108 0)
(10.0914 -0.0398719 0)
(10.0946 -0.0394541 0)
(10.0976 -0.0392068 0)
(10.1003 -0.0390406 0)
(10.0019 -0.00958877 0)
(10.0076 -0.0256663 0)
(10.019 -0.0350814 0)
(10.0305 -0.0407537 0)
(10.0399 -0.0446424 0)
(10.0488 -0.0471767 0)
(10.0574 -0.0484518 0)
(10.0652 -0.0487176 0)
(10.0722 -0.0482942 0)
(10.0782 -0.0474497 0)
(10.0835 -0.0464373 0)
(10.0881 -0.0453496 0)
(10.0922 -0.0443136 0)
(10.0959 -0.0434025 0)
(10.0993 -0.0426808 0)
(10.1024 -0.042185 0)
(10.1053 -0.0418623 0)
(10.1079 -0.0416634 0)
(10.0015 -0.0123395 0)
(10.0129 -0.0305916 0)
(10.0272 -0.041925 0)
(10.0387 -0.0475748 0)
(10.048 -0.0511547 0)
(10.0571 -0.0535604 0)
(10.0662 -0.0544171 0)
(10.0744 -0.0541734 0)
(10.0816 -0.0532829 0)
(10.0877 -0.0520375 0)
(10.093 -0.0507215 0)
(10.0976 -0.0494114 0)
(10.1017 -0.0482394 0)
(10.1055 -0.0472659 0)
(10.1091 -0.0464484 0)
(10.1126 -0.0458986 0)
(10.1161 -0.0455647 0)
(10.1192 -0.0452958 0)
(10.0006 -0.0167516 0)
(10.02 -0.0351536 0)
(10.0341 -0.0449694 0)
(10.045 -0.0513992 0)
(10.0564 -0.0563409 0)
(10.0671 -0.0593683 0)
(10.0776 -0.0602074 0)
(10.0875 -0.0595716 0)
(10.0965 -0.0581062 0)
(10.1045 -0.0561568 0)
(10.1118 -0.0541045 0)
(10.1188 -0.0522731 0)
(10.1255 -0.0507978 0)
(10.1319 -0.0496228 0)
(10.1384 -0.0487611 0)
(10.1444 -0.0481768 0)
(10.1503 -0.047891 0)
(10.1554 -0.0477136 0)
(10.0045 -0.0275611 0)
(10.0364 -0.04626 0)
(10.0626 -0.0511151 0)
(10.0882 -0.0559879 0)
(10.1146 -0.0609445 0)
(10.1415 -0.0640735 0)
(10.1684 -0.0653767 0)
(10.1932 -0.0651568 0)
(10.2157 -0.0639879 0)
(10.2357 -0.0624081 0)
(10.2527 -0.0606866 0)
(10.2666 -0.0590028 0)
(10.2774 -0.057501 0)
(10.2853 -0.0563092 0)
(10.2903 -0.0554072 0)
(10.293 -0.05483 0)
(10.2942 -0.0545193 0)
(10.2941 -0.0545618 0)
(10.0524 -0.0381619 0)
(10.1523 -0.0665539 0)
(10.2529 -0.073246 0)
(10.3194 -0.0771157 0)
(10.3674 -0.0794642 0)
(10.4005 -0.0802339 0)
(10.4151 -0.0791378 0)
(10.4191 -0.0764798 0)
(10.4091 -0.0728016 0)
(10.3881 -0.0684692 0)
(10.3574 -0.0642152 0)
(10.3195 -0.0601487 0)
(10.2767 -0.0563653 0)
(10.2309 -0.0530316 0)
(10.1836 -0.0502318 0)
(10.1359 -0.0480138 0)
(10.0897 -0.0463841 0)
(10.0453 -0.0457717 0)
(9.86893 -0.0355057 0)
(9.62184 -0.0752814 0)
(9.33121 -0.0914297 0)
(9.03752 -0.0940181 0)
(8.75239 -0.0920639 0)
(8.48708 -0.0864774 0)
(8.24873 -0.0792355 0)
(8.03136 -0.0708384 0)
(7.84343 -0.0612019 0)
(7.68329 -0.0514074 0)
(7.54931 -0.0422068 0)
(7.43763 -0.0340756 0)
(7.34448 -0.0270432 0)
(7.2665 -0.0210416 0)
(7.20078 -0.0161123 0)
(7.14421 -0.0124688 0)
(7.09305 -0.00999833 0)
(7.04665 -0.00863469 0)
(-0.0025558 0.00714003 -7.89185e-19)
(-0.0121902 0.0119438 9.11976e-19)
(-0.0253731 0.0131124 -6.34082e-19)
(-0.0391075 0.0114026 -1.95258e-19)
(-0.0488042 0.00605262 3.05563e-19)
(-0.0474267 -0.00297175 -7.62301e-20)
(-0.0320574 -0.0153058 -7.72068e-20)
(-0.00569646 -0.0281644 3.89143e-19)
(0.0285614 -0.0377737 -1.82293e-19)
(0.0678948 -0.0424754 4.35447e-20)
(0.109382 -0.0428832 1.41455e-20)
(0.149731 -0.0400918 -1.53077e-19)
(0.186329 -0.0351137 2.14307e-19)
(0.217593 -0.0287141 2.19545e-19)
(0.242684 -0.0214464 1.89635e-20)
(0.261195 -0.0136457 8.02983e-20)
(0.272795 -0.00551874 3.18062e-20)
(0.277713 0.00301862 5.578e-20)
(0.274748 0.0117983 8.3124e-20)
(0.264255 0.0202947 9.0704e-21)
(0.246888 0.027735 -3.12635e-20)
(0.223302 0.0333435 2.69468e-19)
(0.194477 0.0364208 -3.66671e-20)
(0.161835 0.0363951 3.2652e-19)
(0.12726 0.032915 -7.68857e-20)
(0.0930203 0.0260835 3.43352e-19)
(0.0615844 0.0167393 2.1009e-19)
(0.0352095 0.00673936 1.70699e-19)
(0.01526 -0.00133741 -8.59703e-19)
(0.00164955 -0.00583898 -1.82739e-19)
(-0.00662463 -0.00768787 -1.22498e-18)
(-0.0103405 -0.00894935 7.14384e-19)
(-0.00828472 -0.0108561 5.14241e-19)
(-0.000493643 -0.0142773 -6.30689e-19)
(0.014181 -0.0194666 -7.81145e-19)
(0.0363158 -0.0253553 -3.7296e-20)
(0.0642858 -0.0297233 1.55944e-19)
(0.0940392 -0.030249 3.03792e-19)
(0.120643 -0.0264328 1.81329e-19)
(0.140185 -0.0195515 3.83764e-19)
(0.150921 -0.0119384 1.46433e-19)
(0.153913 -0.0056457 3.83766e-20)
(0.151542 -0.00195298 -5.12076e-19)
(0.147258 -0.00169651 -1.06823e-19)
(0.14395 -0.00587252 2.2324e-19)
(0.140461 -0.0142899 1.15849e-20)
(0.131276 -0.0231665 5.48229e-19)
(0.10961 -0.0229654 1.88157e-19)
(0.0705167 -0.00656965 8.81599e-20)
(0.00218469 0.0135583 -6.85897e-19)
(-0.0934337 0.0314425 3.47287e-19)
(-0.196175 0.0541777 2.00472e-20)
(-0.309939 0.0779203 2.04321e-19)
(-0.43288 0.0986458 1.29071e-19)
(-0.561413 0.111404 4.31921e-20)
(-0.693304 0.114297 9.03556e-20)
(-0.823501 0.112222 1.11642e-19)
(-0.949094 0.108606 -1.13489e-19)
(-1.069 0.102248 4.27877e-20)
(-1.18167 0.0947306 4.61966e-20)
(-1.28639 0.0885292 -1.06073e-19)
(-1.38327 0.0802968 -6.76318e-20)
(-1.47232 0.0712825 5.14889e-20)
(-1.55359 0.06508 6.04621e-20)
(-1.62856 0.060155 1.67014e-20)
(-1.69793 0.0549817 -6.35015e-20)
(-1.76204 0.0503576 6.92881e-21)
(-1.82155 0.0464495 3.26013e-21)
(-1.87708 0.0429768 1.61959e-20)
(-1.92909 0.0399534 7.88081e-20)
(-1.97799 0.0372969 -3.91147e-21)
(-2.02415 0.0349353 -5.66225e-20)
(-2.06785 0.0328334 6.08385e-20)
(-2.10931 0.0309264 2.2117e-20)
(-2.14875 0.0291944 -3.57068e-20)
(-2.18631 0.0275891 2.96174e-20)
(-2.22212 0.0260992 -4.54994e-21)
(-2.25628 0.0246906 5.69166e-20)
(-2.28886 0.0233605 2.61807e-20)
(-2.31992 0.0220806 -3.86105e-20)
(-2.34952 0.020852 -1.10158e-20)
(-2.3777 0.0196547 2.17726e-21)
(-2.40449 0.0184907 4.32107e-20)
(-2.4299 0.0173432 5.35904e-20)
(-2.45397 0.0162153 4.71291e-20)
(-2.47671 0.0150967 -4.77848e-20)
(-2.49813 0.0139896 1.01554e-19)
(-2.51825 0.0128937 -4.02807e-21)
(-2.53711 0.0118145 7.26499e-20)
(-2.55477 0.0107257 -1.02802e-19)
(-2.57116 0.00964489 -5.50721e-20)
(-2.58619 0.00856435 4.62318e-20)
(-2.5998 0.00748651 6.71215e-20)
(-2.61194 0.00641431 -1.01651e-20)
(-2.62261 0.0053485 -6.28601e-20)
(-2.63179 0.00427896 -6.23042e-20)
(-2.63948 0.00320822 6.37871e-20)
(-2.64567 0.00211673 -3.42951e-20)
(-2.65037 0.00102798 -8.1632e-20)
(-2.65356 -2.18856e-05 -3.54923e-20)
(-2.65524 -0.000891754 8.73528e-20)
(-2.65591 -0.00160148 4.37486e-20)
(-2.65559 -0.00226485 6.51994e-20)
(-2.65424 -0.00286743 -3.97334e-20)
(-2.65189 -0.00341367 1.26096e-20)
(-2.64852 -0.00389058 4.3625e-21)
(-2.64419 -0.00435181 -7.96223e-21)
(-2.63891 -0.00475656 -1.71661e-20)
(-2.63273 -0.00515063 -2.56425e-20)
(-2.62566 -0.00549019 -4.14796e-20)
(-2.61773 -0.00582251 -5.64883e-20)
(-2.60898 -0.00610577 2.97168e-20)
(-2.5994 -0.00638503 -4.12102e-20)
(-2.58901 -0.00662471 -4.00471e-20)
(-2.57782 -0.00686426 7.01193e-20)
(-2.56583 -0.00707624 -4.11705e-21)
(-2.55306 -0.00729455 -4.44383e-20)
(-2.53949 -0.00750019 -4.607e-20)
(-2.52511 -0.00771981 4.23168e-20)
(-2.50988 -0.00794123 3.15227e-21)
(-2.49375 -0.00817783 1.26147e-20)
(-2.47672 -0.00843394 -8.23981e-21)
(-2.45873 -0.00870177 -2.40501e-20)
(-2.43979 -0.00900765 2.03322e-20)
(-2.41985 -0.00932357 -1.79658e-20)
(-2.39887 -0.00969033 1.62762e-20)
(-2.3768 -0.0100665 2.21093e-20)
(-2.35358 -0.0105076 -7.87643e-21)
(-2.32915 -0.0109639 2.19151e-20)
(-2.30348 -0.0115056 -1.93531e-20)
(-2.27649 -0.0120764 4.6801e-20)
(-2.24814 -0.0126599 -4.07167e-21)
(-2.21843 -0.0132268 -4.9404e-20)
(-2.18729 -0.0139105 1.16543e-20)
(-2.15469 -0.0145394 -2.7615e-21)
(-2.12064 -0.0151067 1.36757e-20)
(-2.08521 -0.0155189 1.58156e-20)
(-2.04841 -0.0157578 -1.09883e-20)
(-2.01038 -0.0157853 -2.76861e-21)
(-1.971 -0.0161703 1.78909e-22)
(-1.9302 -0.0168892 5.05092e-21)
(-1.88799 -0.017557 1.09875e-20)
(-1.84443 -0.0182208 -8.84472e-21)
(-1.79954 -0.0188752 -1.22087e-20)
(-1.75339 -0.019511 -2.59487e-20)
(-1.70601 -0.0201336 -4.29953e-20)
(-1.65751 -0.020728 -3.58973e-20)
(-1.60788 -0.0213047 -6.31248e-20)
(-1.55726 -0.0218452 3.3459e-20)
(-1.50564 -0.0223648 3.30298e-20)
(-1.45316 -0.0228415 6.0016e-20)
(-1.39982 -0.0232946 4.66475e-20)
(-1.34577 -0.0236995 1.38019e-19)
(-1.291 -0.0240786 9.68324e-21)
(-1.23569 -0.0244073 6.4146e-21)
(-1.1798 -0.0247105 -1.15166e-19)
(-1.12352 -0.0249677 1.87378e-19)
(-1.06682 -0.0252029 -1.14172e-19)
(-1.00985 -0.0254049 1.62518e-20)
(-0.952577 -0.0255864 6.00696e-20)
(-0.895102 -0.0257492 2.23625e-20)
(-0.83744 -0.0258952 5.80048e-20)
(-0.779632 -0.0260282 2.79284e-19)
(-0.721703 -0.0261528 1.39806e-19)
(-0.663687 -0.0262691 6.6957e-20)
(-0.605607 -0.0263809 9.60821e-20)
(-0.547495 -0.0264902 2.7466e-19)
(-0.489369 -0.0266024 -1.21615e-20)
(-0.431255 -0.026719 3.23913e-19)
(-0.37316 -0.0268471 4.72534e-19)
(-0.315099 -0.0269886 4.64696e-19)
(-0.257092 -0.027138 -1.71007e-20)
(-0.199181 -0.0273119 4.47563e-20)
(-0.141417 -0.0274909 -1.07023e-19)
(-0.0839496 -0.0275957 -1.35802e-18)
(-0.0272487 -0.0274668 6.80055e-19)
(0.0287626 -0.0263889 4.75427e-19)
(0.0805382 -0.0240427 -8.66214e-19)
(0.137102 -0.0208263 -7.88247e-19)
(0.152849 -0.00845089 1.15746e-18)
(-0.000374826 0.0194805 2.2096e-18)
(-0.00558705 0.0342163 -1.73311e-18)
(-0.0120102 0.0351459 -7.43785e-19)
(-0.0121539 0.0256131 2.14961e-18)
(0.00148063 0.00407889 4.43774e-19)
(0.0298236 -0.0313745 1.86618e-19)
(0.0675292 -0.0707944 -1.18233e-19)
(0.110662 -0.103005 -4.38109e-19)
(0.155272 -0.122697 -2.48323e-20)
(0.198043 -0.129542 -3.17226e-19)
(0.236884 -0.126087 1.69413e-20)
(0.270866 -0.115558 -4.41699e-21)
(0.299664 -0.100723 9.87612e-20)
(0.323293 -0.0835583 1.41775e-20)
(0.341964 -0.0653589 -3.09823e-20)
(0.355975 -0.0468572 -2.60416e-19)
(0.365699 -0.0284311 -5.64263e-20)
(0.371299 -0.0102123 2.48656e-19)
(0.373773 0.00781012 -2.88252e-19)
(0.372924 0.0254469 8.08928e-20)
(0.368362 0.0423485 7.38088e-21)
(0.359585 0.0579623 1.62481e-19)
(0.346058 0.0715121 1.93091e-19)
(0.327352 0.0820015 1.7061e-19)
(0.303324 0.0883152 2.33147e-19)
(0.274295 0.0894285 -1.41949e-19)
(0.241252 0.0847274 3.89517e-20)
(0.205914 0.0744291 5.52718e-20)
(0.170639 0.0596903 -2.45642e-19)
(0.138264 0.0422544 -2.03555e-19)
(0.111849 0.0236487 -3.9682e-19)
(0.0944905 0.00468923 -1.46571e-19)
(0.0873954 -0.0144379 -1.19271e-18)
(0.0915833 -0.0331445 4.4444e-19)
(0.105291 -0.0518785 -5.39961e-19)
(0.124981 -0.0680049 5.37058e-19)
(0.144866 -0.0751217 -4.29703e-19)
(0.15952 -0.0696975 1.05713e-19)
(0.166497 -0.0545191 2.56087e-19)
(0.165357 -0.0347978 -2.07035e-19)
(0.156802 -0.0167639 1.88642e-19)
(0.141794 -0.00445 -8.44272e-20)
(0.120433 0.00278973 -3.62629e-19)
(0.0875125 0.00887649 -1.22917e-18)
(0.0344187 0.020646 -1.05068e-18)
(-0.0518548 0.0494136 9.96615e-21)
(-0.166715 0.0909239 -6.52114e-19)
(-0.29489 0.134456 -1.2246e-19)
(-0.429146 0.176652 3.23571e-19)
(-0.569176 0.212503 3.94788e-19)
(-0.711441 0.239497 7.87954e-20)
(-0.851537 0.258349 -2.96268e-20)
(-0.987904 0.269092 -2.76082e-20)
(-1.11734 0.271886 -8.24144e-20)
(-1.23793 0.267551 -5.96676e-20)
(-1.34751 0.257537 -1.49141e-19)
(-1.44535 0.243582 -1.68978e-19)
(-1.53221 0.227052 -3.69901e-20)
(-1.60887 0.209403 2.40175e-20)
(-1.67668 0.191622 -1.19221e-19)
(-1.73695 0.17458 8.97852e-20)
(-1.79133 0.158687 -3.83315e-20)
(-1.84069 0.144191 -1.51619e-19)
(-1.88611 0.131305 1.15918e-20)
(-1.92812 0.119976 1.08391e-19)
(-1.96724 0.11005 -4.15377e-20)
(-2.00401 0.101396 4.57629e-21)
(-2.03883 0.0938463 -9.55607e-20)
(-2.07188 0.0872457 3.28325e-20)
(-2.10337 0.0814257 -5.58708e-20)
(-2.13344 0.076271 9.9766e-22)
(-2.16219 0.0716466 -6.88187e-20)
(-2.18971 0.0674759 2.23139e-21)
(-2.21604 0.0636582 -4.0696e-20)
(-2.24125 0.0601484 5.38508e-20)
(-2.26536 0.0568734 -9.28556e-20)
(-2.28841 0.053809 1.20802e-20)
(-2.31041 0.0509046 -9.36569e-20)
(-2.33137 0.0481487 3.68622e-21)
(-2.35131 0.0455039 7.38309e-20)
(-2.37024 0.0429666 1.44788e-20)
(-2.38816 0.0405102 -4.32663e-20)
(-2.40508 0.038133 -6.46917e-20)
(-2.42099 0.0358119 3.70632e-20)
(-2.43591 0.0335447 1.04449e-19)
(-2.44982 0.0313151 -3.30462e-20)
(-2.46272 0.0291211 -1.10495e-21)
(-2.47464 0.0269669 -2.7842e-21)
(-2.4856 0.0248444 6.67701e-20)
(-2.49563 0.0227402 2.34148e-19)
(-2.50467 0.0206528 5.09618e-20)
(-2.51265 0.0185749 9.55474e-20)
(-2.51954 0.0165167 -2.07102e-19)
(-2.52534 0.0144765 -9.95598e-20)
(-2.53007 0.0124684 6.47168e-20)
(-2.53375 0.0104863 1.31573e-19)
(-2.53645 0.00854752 -7.22617e-20)
(-2.53826 0.00663656 -2.93863e-20)
(-2.53926 0.00478471 -5.06043e-20)
(-2.5396 0.00300102 7.33471e-20)
(-2.5394 0.00138267 -1.01658e-19)
(-2.53831 -0.000100619 -7.62898e-20)
(-2.53622 -0.00151814 -4.90392e-20)
(-2.53315 -0.00288074 1.61712e-19)
(-2.52908 -0.00419584 -1.81771e-20)
(-2.52403 -0.00544384 1.13252e-20)
(-2.51803 -0.00666215 5.872e-20)
(-2.51111 -0.00781411 1.25885e-19)
(-2.50328 -0.00894279 -1.71195e-20)
(-2.49459 -0.0100062 -4.78141e-20)
(-2.48504 -0.011053 3.72665e-21)
(-2.47467 -0.0120412 -8.71672e-20)
(-2.46349 -0.0130203 9.38415e-20)
(-2.45149 -0.0139514 3.48994e-20)
(-2.43871 -0.0148791 2.72752e-20)
(-2.42512 -0.0157698 6.72188e-20)
(-2.41074 -0.0166655 8.01468e-20)
(-2.39555 -0.0175396 -4.15322e-20)
(-2.37954 -0.0184284 2.67415e-20)
(-2.36265 -0.0193137 3.84176e-20)
(-2.34487 -0.0202196 4.60752e-20)
(-2.32617 -0.0211431 -5.24493e-21)
(-2.3065 -0.0220837 -1.97874e-21)
(-2.28586 -0.0230583 -3.67817e-20)
(-2.26419 -0.0240404 -3.37165e-20)
(-2.24146 -0.0250647 -3.60441e-20)
(-2.21761 -0.0260888 3.50291e-20)
(-2.19259 -0.0271637 -4.90949e-21)
(-2.16636 -0.0282296 -2.06384e-20)
(-2.13887 -0.0293483 -4.15088e-21)
(-2.11008 -0.0304457 -2.36425e-20)
(-2.07995 -0.0315947 -2.96703e-20)
(-2.04843 -0.0327183 -1.42839e-20)
(-2.01551 -0.03389 7.25447e-21)
(-1.98115 -0.0350243 5.44289e-21)
(-1.94534 -0.0362044 5.27185e-21)
(-1.90808 -0.037356 -5.28293e-21)
(-1.86937 -0.0385465 2.27381e-20)
(-1.8292 -0.0397228 -3.43832e-22)
(-1.78759 -0.0408804 -3.70657e-21)
(-1.74464 -0.0419518 -1.58662e-21)
(-1.70037 -0.0429612 4.61487e-21)
(-1.65478 -0.0439079 3.79246e-21)
(-1.60789 -0.0448064 -9.45115e-21)
(-1.55979 -0.0456373 -3.49753e-21)
(-1.51049 -0.046416 -2.14514e-20)
(-1.46011 -0.0471161 -1.49209e-20)
(-1.40866 -0.0477605 3.60845e-20)
(-1.35625 -0.0483186 6.24247e-20)
(-1.30291 -0.0488202 -9.19223e-20)
(-1.24876 -0.0492308 2.96802e-20)
(-1.19381 -0.0495848 6.10677e-21)
(-1.1382 -0.0498445 -1.82831e-19)
(-1.08193 -0.050047 4.6727e-21)
(-1.02516 -0.050156 3.06472e-21)
(-0.967888 -0.0502098 -6.66611e-20)
(-0.910255 -0.0501812 8.74987e-20)
(-0.852263 -0.0501053 1.27787e-19)
(-0.79403 -0.0499704 1.37154e-19)
(-0.735564 -0.0497935 1.25518e-19)
(-0.676939 -0.049578 -1.9213e-19)
(-0.618181 -0.0493353 2.51713e-20)
(-0.559325 -0.0490645 -5.58065e-20)
(-0.500395 -0.0487798 1.54526e-19)
(-0.441415 -0.0484765 -4.83098e-20)
(-0.382406 -0.0481623 2.01246e-19)
(-0.323388 -0.0478358 -2.0612e-19)
(-0.264377 -0.047506 -3.28871e-19)
(-0.205387 -0.0471703 -5.16369e-19)
(-0.146423 -0.0468346 -2.50608e-19)
(-0.0874914 -0.0465031 -1.1658e-19)
(-0.0286041 -0.046165 5.75271e-20)
(0.0302729 -0.0458024 3.54216e-20)
(0.0890578 -0.0453667 -4.08903e-19)
(0.147579 -0.0447773 -3.78267e-19)
(0.205574 -0.0438889 5.20061e-19)
(0.262997 -0.0422836 6.32658e-19)
(0.317538 -0.0395813 5.90638e-19)
(0.374398 -0.0351243 2.96097e-19)
(0.409736 -0.0223207 -6.34648e-19)
(0.000205727 0.0224185 2.84729e-19)
(0.000663685 0.0382887 2.7424e-18)
(0.00632481 0.0307664 2.8597e-18)
(0.025921 -0.00163942 -1.89018e-18)
(0.0640842 -0.0588701 3.31583e-19)
(0.11362 -0.122057 -1.51468e-19)
(0.16455 -0.172168 -6.16181e-20)
(0.210196 -0.200808 4.66036e-19)
(0.248003 -0.208795 3.62618e-19)
(0.277978 -0.201165 2.99535e-19)
(0.301272 -0.183523 1.34537e-19)
(0.319267 -0.160397 1.27446e-19)
(0.333123 -0.134838 -4.06493e-19)
(0.343656 -0.108651 -2.52721e-19)
(0.351412 -0.0828092 9.104e-20)
(0.356751 -0.0577719 -1.9785e-19)
(0.35994 -0.0337209 1.94503e-19)
(0.361159 -0.0107319 2.94042e-20)
(0.360675 0.0112158 2.89342e-19)
(0.358785 0.032272 2.52951e-19)
(0.355737 0.0525334 -2.40258e-19)
(0.351671 0.0719003 -6.4982e-19)
(0.346471 0.0899815 -1.17692e-19)
(0.339707 0.106025 -7.64304e-19)
(0.330685 0.118924 1.72945e-19)
(0.31857 0.127304 2.75117e-19)
(0.302658 0.129755 -1.13329e-19)
(0.282751 0.125183 4.07417e-19)
(0.259538 0.113199 2.3334e-19)
(0.234748 0.0942371 5.60576e-19)
(0.210972 0.0694888 -3.09907e-19)
(0.191126 0.0403837 -2.22216e-19)
(0.177589 0.00857469 1.25883e-19)
(0.170436 -0.0249145 -1.49278e-19)
(0.167763 -0.0567104 -1.95406e-19)
(0.163194 -0.0768204 -1.1297e-20)
(0.150732 -0.0767512 -5.41611e-19)
(0.130425 -0.0590477 1.85056e-19)
(0.103095 -0.03166 -4.83227e-19)
(0.0687356 0.000312464 -1.79956e-19)
(0.0251006 0.0324035 1.82195e-19)
(-0.0364202 0.0617674 -1.69912e-19)
(-0.122465 0.0978962 -2.54048e-19)
(-0.228781 0.14532 5.21989e-19)
(-0.352021 0.198685 4.46662e-19)
(-0.48666 0.253219 -2.40184e-19)
(-0.625006 0.305267 9.05618e-20)
(-0.761261 0.349727 -9.10226e-20)
(-0.891178 0.384938 -1.42209e-19)
(-1.01114 0.410097 -6.24047e-20)
(-1.1194 0.424146 -6.20262e-20)
(-1.21548 0.427754 1.10426e-19)
(-1.29886 0.421937 1.79407e-20)
(-1.37019 0.407989 7.85632e-20)
(-1.43103 0.387537 8.72718e-21)
(-1.48351 0.362586 9.81331e-21)
(-1.52982 0.335327 4.14972e-20)
(-1.57168 0.307582 6.38998e-20)
(-1.61033 0.280602 -1.07604e-20)
(-1.64687 0.255316 2.05351e-19)
(-1.68184 0.232232 1.47671e-19)
(-1.7157 0.211442 3.42053e-20)
(-1.74875 0.192942 7.62694e-20)
(-1.7811 0.176815 -1.77514e-19)
(-1.81267 0.162819 2.62507e-20)
(-1.84344 0.150572 1.02916e-19)
(-1.87343 0.139848 -1.65292e-19)
(-1.90262 0.130426 -7.49559e-20)
(-1.93098 0.122083 5.03792e-20)
(-1.9585 0.114631 3.94623e-20)
(-1.98517 0.107916 -8.38022e-20)
(-2.01097 0.1018 1.44829e-19)
(-2.0359 0.0961804 1.69435e-20)
(-2.05995 0.0909631 5.23264e-20)
(-2.08313 0.0860819 -1.7188e-19)
(-2.10543 0.0814742 1.66556e-19)
(-2.12685 0.077099 3.5028e-20)
(-2.14738 0.0729151 -7.23459e-20)
(-2.16702 0.068897 -1.3182e-19)
(-2.18578 0.0650164 -6.54762e-20)
(-2.20364 0.061258 1.05228e-20)
(-2.22061 0.0576024 2.83393e-20)
(-2.23669 0.0540394 -1.34132e-20)
(-2.25185 0.050553 -1.00278e-19)
(-2.26611 0.0471341 -2.75629e-20)
(-2.27945 0.0437698 -3.05264e-20)
(-2.29186 0.040456 1.83174e-20)
(-2.30336 0.0371896 -6.35026e-20)
(-2.31396 0.0339677 -9.12422e-20)
(-2.32367 0.0307796 -1.12505e-19)
(-2.33243 0.0276231 3.63782e-20)
(-2.3402 0.0244979 -1.33107e-19)
(-2.34696 0.0214085 1.29562e-19)
(-2.35268 0.0183656 1.12176e-20)
(-2.35738 0.015377 -3.06313e-20)
(-2.36108 0.0124585 -5.70584e-20)
(-2.3638 0.00961854 1.97222e-20)
(-2.36557 0.00687815 9.51347e-20)
(-2.36642 0.00424994 7.83087e-20)
(-2.36637 0.00174545 3.47292e-20)
(-2.3654 -0.00065787 4.15993e-20)
(-2.36348 -0.00299539 2.07109e-20)
(-2.36058 -0.00525543 1.91496e-20)
(-2.35672 -0.00743586 -2.64467e-19)
(-2.3519 -0.00952378 5.18715e-20)
(-2.34613 -0.0115341 4.68209e-20)
(-2.33946 -0.0134601 -9.06253e-20)
(-2.33189 -0.0153123 7.68119e-20)
(-2.32346 -0.017085 -2.54288e-20)
(-2.3142 -0.0187878 1.09561e-19)
(-2.30412 -0.0204223 7.92745e-20)
(-2.29325 -0.0219982 5.54481e-20)
(-2.2816 -0.0235234 -3.63185e-20)
(-2.26918 -0.0250056 4.35857e-20)
(-2.25599 -0.0264556 2.78512e-20)
(-2.24204 -0.0278796 -3.34074e-20)
(-2.22731 -0.0292923 -4.97731e-20)
(-2.21179 -0.0306986 1.54594e-19)
(-2.19545 -0.0321141 2.28441e-20)
(-2.17826 -0.0335428 -5.23967e-20)
(-2.1602 -0.0350015 -1.31028e-19)
(-2.14121 -0.0364911 -1.65104e-20)
(-2.12129 -0.0380239 -1.07052e-21)
(-2.10038 -0.039596 -4.5475e-20)
(-2.07844 -0.0412108 4.85881e-21)
(-2.05543 -0.0428674 3.59856e-20)
(-2.0313 -0.0445647 -9.86527e-20)
(-2.00599 -0.0463056 3.27459e-20)
(-1.97946 -0.0480809 1.29105e-20)
(-1.95166 -0.0498959 4.96713e-20)
(-1.92256 -0.0517319 -1.35028e-20)
(-1.89212 -0.0535942 2.82613e-20)
(-1.86029 -0.0554601 6.84171e-20)
(-1.82705 -0.0573425 6.61797e-21)
(-1.79238 -0.0592023 -2.42271e-20)
(-1.75628 -0.0610488 5.75376e-21)
(-1.71873 -0.0628536 4.09653e-21)
(-1.67975 -0.0646249 -7.26284e-21)
(-1.63934 -0.066353 -6.85045e-21)
(-1.59756 -0.068057 -3.61494e-22)
(-1.55444 -0.0696972 9.93962e-23)
(-1.51003 -0.0712537 -1.24561e-20)
(-1.46432 -0.0727128 -2.45822e-21)
(-1.41738 -0.0740777 -3.09027e-21)
(-1.36924 -0.0753321 -7.35152e-21)
(-1.31998 -0.076481 3.91229e-20)
(-1.26965 -0.077507 -1.20291e-20)