/*--------------------------------*- C++ -*----------------------------------*\
  =========                 |
  \\      /  F ield         | OpenFOAM: The Open Source CFD Toolbox
   \\    /   O peration     | Website:  https://openfoam.org
    \\  /    A nd           | Version:  13
     \\/     M anipulation  |
\*---------------------------------------------------------------------------*/
FoamFile
{
    format      ascii;
    class       volScalarField;
    location    "900";
    object      k;
}
// * * * * * * * * * * * * * * * * * * * * * * * * * * * * * * * * * * * * * //

dimensions      [0 2 -2 0 0 0 0];

internalField   nonuniform List<scalar> 
12225
(
0.553228
1.21023
1.48975
1.5917
2.25964
1.93442
1.91452
1.38637
2.32428
2.55174
2.32087
2.56043
2.9024
2.62585
2.19297
2.57905
2.17465
2.46035
0.37562
0.41047
0.42849
0.445908
0.481472
0.418032
0.460162
0.462653
0.480742
0.486285
0.491286
0.508109
0.509382
0.567731
0.589652
0.653319
0.716744
0.749139
0.377627
0.346537
0.238483
0.152877
0.0977982
0.0678775
0.0703427
0.0739358
0.0747882
0.0635543
0.0591699
0.0637008
0.0678048
0.0775415
0.0855531
0.096719
0.103792
0.114024
0.375162
0.363912
0.28175
0.19266
0.124755
0.0838904
0.0613768
0.0491293
0.0445092
0.0395249
0.0353846
0.0317097
0.0285474
0.0268302
0.0263669
0.0263025
0.0262461
0.0269135
0.374267
0.36611
0.321714
0.270896
0.21208
0.167405
0.144415
0.128436
0.118823
0.113525
0.10926
0.101379
0.0909676
0.0824842
0.0751097
0.0697922
0.0676294
0.0656408
0.374772
0.362361
0.337414
0.316068
0.283489
0.253631
0.237354
0.227034
0.217278
0.211671
0.209612
0.202852
0.194469
0.18583
0.177738
0.169454
0.162894
0.157972
0.374177
0.364591
0.350751
0.339476
0.321485
0.30591
0.294805
0.287029
0.283271
0.280359
0.275802
0.270505
0.264113
0.257904
0.252427
0.246319
0.243063
0.236996
0.373998
0.368794
0.358571
0.351552
0.34384
0.336362
0.329564
0.324882
0.322714
0.31942
0.315159
0.310925
0.306786
0.302844
0.299733
0.296415
0.294486
0.290686
0.373769
0.371041
0.365746
0.361319
0.356981
0.352988
0.34919
0.345996
0.343166
0.339982
0.336805
0.333331
0.330431
0.327511
0.325463
0.322929
0.321577
0.319094
0.3739
0.371445
0.368339
0.365347
0.362499
0.359809
0.357282
0.354792
0.352428
0.34988
0.347421
0.34483
0.342608
0.340338
0.338625
0.336691
0.335375
0.333549
0.373848
0.371554
0.369176
0.366813
0.364597
0.36245
0.360439
0.358405
0.356458
0.354405
0.35247
0.350458
0.348664
0.346855
0.345336
0.343741
0.342467
0.340981
0.373832
0.371558
0.369363
0.367227
0.365223
0.363284
0.361464
0.359655
0.357923
0.356164
0.354492
0.352805
0.351252
0.349711
0.348337
0.346945
0.345738
0.344438
0.37383
0.371557
0.369405
0.367342
0.365402
0.363542
0.361791
0.36009
0.358468
0.356874
0.35535
0.353854
0.352447
0.351072
0.3498
0.348543
0.347399
0.346232
0.373828
0.371555
0.369407
0.367363
0.365432
0.363593
0.361853
0.360189
0.358608
0.357084
0.355634
0.354233
0.352905
0.351624
0.350415
0.349244
0.348143
0.347066
0.373827
0.371553
0.369401
0.367359
0.365425
0.363586
0.361843
0.360183
0.358607
0.357103
0.355671
0.354302
0.352999
0.351753
0.350567
0.349432
0.348349
0.347312
0.373826
0.371551
0.369396
0.367352
0.365413
0.363573
0.361824
0.360163
0.358583
0.357079
0.355647
0.354283
0.352983
0.351743
0.35056
0.349431
0.348352
0.347323
0.373825
0.37155
0.369392
0.367346
0.365405
0.363561
0.36181
0.360145
0.358562
0.357056
0.355621
0.354255
0.352953
0.351711
0.350526
0.349395
0.348316
0.347285
0.373825
0.371549
0.36939
0.367343
0.3654
0.363554
0.361801
0.360134
0.358549
0.35704
0.355604
0.354235
0.35293
0.351686
0.3505
0.349367
0.348287
0.347254
0.373825
0.371549
0.36939
0.367342
0.365398
0.363552
0.361798
0.36013
0.358544
0.357034
0.355597
0.354227
0.352922
0.351677
0.350489
0.349356
0.348274
0.347241
0.373826
0.371549
0.369393
0.367344
0.365403
0.363556
0.361804
0.360136
0.358552
0.357043
0.355606
0.354236
0.352929
0.351682
0.350492
0.349355
0.348269
0.347233
0.373826
0.371552
0.369396
0.367351
0.365409
0.363567
0.361814
0.360152
0.358569
0.357063
0.355621
0.354242
0.352914
0.351642
0.350417
0.349249
0.348126
0.347062
0.373831
0.371551
0.369406
0.367358
0.365424
0.363578
0.361835
0.36018
0.358602
0.357082
0.355587
0.354117
0.352646
0.351216
0.349796
0.348452
0.347146
0.345932
0.373838
0.371546
0.36943
0.367361
0.365453
0.363596
0.361881
0.36023
0.358634
0.356958
0.355158
0.353233
0.351139
0.349042
0.3469
0.344897
0.34296
0.341239
0.373845
0.371545
0.369463
0.367356
0.365522
0.363631
0.361991
0.360291
0.358491
0.356125
0.353291
0.349803
0.345794
0.341691
0.337501
0.333579
0.329911
0.326731
0.373838
0.371565
0.369465
0.367431
0.36565
0.363826
0.362171
0.360385
0.35779
0.353727
0.348223
0.34074
0.332371
0.323507
0.314418
0.305671
0.297807
0.290616
0.373793
0.371635
0.369575
0.367821
0.366154
0.364582
0.362688
0.360666
0.356586
0.349881
0.338146
0.323902
0.306667
0.288033
0.268995
0.249816
0.233744
0.217421
0.373694
0.372215
0.370811
0.369679
0.368506
0.367065
0.364964
0.362294
0.355612
0.343478
0.322668
0.297222
0.271135
0.242686
0.213404
0.188312
0.162277
0.13926
0.374532
0.376802
0.378651
0.380249
0.380249
0.379404
0.377829
0.373923
0.366342
0.349809
0.316285
0.288466
0.270851
0.249083
0.232664
0.220293
0.206571
0.194674
0.388808
0.425089
0.449944
0.465403
0.48519
0.495826
0.514961
0.52757
0.543203
0.554917
0.564454
0.572379
0.576179
0.585996
0.594364
0.609822
0.613189
0.630314
0.951097
1.24811
1.44435
1.54886
1.59806
1.59481
1.58188
1.5512
1.51481
1.47715
1.44045
1.40543
1.37228
1.34194
1.31367
1.2882
1.26402
1.24302
1.59829e-08
3.95407e-07
2.03201e-06
8.0694e-06
2.7198e-05
8.38176e-05
0.000220603
0.000442988
0.000723547
0.00102143
0.00129132
0.00150324
0.00164688
0.0017075
0.00168873
0.00162828
0.0015021
0.00129886
0.00110556
0.000942391
0.000788921
0.000640288
0.000495598
0.000361091
0.000239086
0.000142602
7.68488e-05
3.89027e-05
1.96227e-05
1.04123e-05
6.04369e-06
4.19611e-06
4.14796e-06
7.65602e-06
1.8023e-05
4.43948e-05
0.000203217
0.000453955
0.000832163
0.00109464
0.00107703
0.000954768
0.000755711
0.000662439
0.000689724
0.000832384
0.00104598
0.00167513
0.00293462
0.00690097
0.0201065
0.0508107
0.0896992
0.124431
0.146743
0.154542
0.151572
0.153275
0.148799
0.165026
0.167119
0.156024
0.168069
0.181241
0.162173
0.178005
0.185238
0.193641
0.201588
0.209669
0.217258
0.225062
0.232504
0.240032
0.24736
0.254682
0.261885
0.269045
0.276117
0.283135
0.290073
0.296949
0.303749
0.31048
0.317133
0.323709
0.330203
0.336608
0.342922
0.349137
0.355246
0.361243
0.367117
0.372861
0.378462
0.38391
0.389194
0.394304
0.399235
0.40399
0.40859
0.413085
0.41748
0.421699
0.425783
0.429717
0.4335
0.437129
0.4406
0.44391
0.447057
0.450037
0.452849
0.455489
0.457957
0.46025
0.462367
0.464306
0.466068
0.46765
0.469053
0.470276
0.47132
0.472185
0.472874
0.473386
0.473728
0.473901
0.473915
0.473863
0.473361
0.473063
0.472064
0.471309
0.470266
0.469218
0.467993
0.466648
0.465061
0.463276
0.461361
0.459298
0.457116
0.454815
0.452406
0.449897
0.447295
0.444609
0.441846
0.439017
0.436127
0.433186
0.430202
0.427181
0.424131
0.42106
0.417981
0.414903
0.411849
0.408834
0.405866
0.402941
0.400076
0.397265
0.394522
0.391832
0.389212
0.386646
0.384152
0.381713
0.379345
0.377021
0.374745
0.372471
0.370165
0.367705
0.365013
0.361667
0.357094
0.342715
7.65182e-08
2.1525e-06
1.4608e-05
6.36918e-05
0.000233124
0.000705824
0.00162787
0.0029703
0.00454304
0.00616969
0.00766744
0.00890887
0.00983595
0.0104339
0.0107359
0.010712
0.0105479
0.010242
0.00969582
0.00893752
0.0079617
0.00682395
0.00555392
0.00427475
0.00298856
0.00199404
0.00126917
0.000784722
0.000473214
0.00028394
0.000176334
0.000119599
9.97501e-05
0.000126832
0.000241871
0.000440796
0.00208044
0.00452972
0.00788259
0.0103666
0.0113275
0.0111411
0.0107
0.0110405
0.0130965
0.0173028
0.0228804
0.0334615
0.0516637
0.0756424
0.0989653
0.122354
0.141725
0.158401
0.173514
0.187855
0.200436
0.216106
0.232535
0.251577
0.26851
0.286746
0.305563
0.32375
0.341984
0.360984
0.379262
0.397488
0.415336
0.43312
0.450634
0.468081
0.485364
0.502583
0.519702
0.536765
0.55376
0.570705
0.587595
0.604437
0.621224
0.637957
0.654629
0.671237
0.687772
0.704229
0.720598
0.736868
0.75303
0.76907
0.784977
0.800737
0.816334
0.83175
0.846966
0.86196
0.876704
0.891172
0.905329
0.91914
0.932563
0.945563
0.95821
0.970635
0.982767
0.994633
1.0062
1.01748
1.02844
1.03908
1.04938
1.05935
1.06896
1.07821
1.08709
1.0956
1.10372
1.11145
1.11877
1.1257
1.13221
1.1383
1.14397
1.14922
1.15403
1.15841
1.16234
1.16584
1.1689
1.17153
1.1737
1.17548
1.17677
1.17759
1.17795
1.1781
1.17784
1.17732
1.17661
1.1756
1.17417
1.17236
1.17019
1.16767
1.16482
1.16165
1.15818
1.15443
1.15042
1.14615
1.14165
1.13694
1.13203
1.12695
1.12169
1.11629
1.11076
1.10514
1.09945
1.09373
1.088
1.08226
1.07655
1.07085
1.0652
1.05957
1.05398
1.04842
1.0429
1.03741
1.03196
1.02652
1.02108
1.01558
1.00994
1.004
0.997576
0.990168
0.979821
0.955746
2.09756e-07
6.32172e-06
4.82937e-05
0.000229799
0.000668272
0.00189621
0.00387128
0.00619365
0.00854058
0.0106804
0.012477
0.0138694
0.0148539
0.0154566
0.0157352
0.0157119
0.0155596
0.0152357
0.0147376
0.0141097
0.0133477
0.012446
0.011384
0.0101601
0.00879524
0.00722084
0.00555904
0.00404681
0.00271736
0.00178372
0.00119552
0.000855414
0.000647005
0.000633084
0.00120688
0.0026048
0.00841353
0.0166534
0.0237141
0.0285822
0.0312753
0.0327332
0.0362794
0.0455144
0.0613538
0.0780509
0.0955867
0.115449
0.135374
0.154187
0.174283
0.194393
0.215718
0.23863
0.263001
0.288828
0.316061
0.343779
0.371976
0.399925
0.427423
0.454819
0.481718
0.507963
0.533699
0.558885
0.58357
0.607834
0.631734
0.655349
0.678706
0.701872
0.724866
0.747726
0.770467
0.793108
0.815655
0.838117
0.860494
0.882787
0.904992
0.927104
0.949117
0.971023
0.992813
1.01448
1.036
1.05738
1.07859
1.09963
1.12048
1.14112
1.16155
1.18175
1.20169
1.22137
1.24078
1.25989
1.2787
1.2972
1.31537
1.33324
1.35077
1.36797
1.38479
1.40123
1.41727
1.4329
1.44809
1.46284
1.47713
1.49094
1.50427
1.5171
1.52942
1.54122
1.55248
1.56321
1.57339
1.58302
1.59208
1.60057
1.60848
1.61581
1.62255
1.62869
1.63424
1.6392
1.64355
1.6473
1.65045
1.65301
1.65495
1.65631
1.65704
1.65735
1.65725
1.6565
1.65525
1.65347
1.65117
1.64835
1.64503
1.64125
1.63701
1.63234
1.62727
1.62181
1.61598
1.60982
1.60334
1.59658
1.58954
1.58227
1.57477
1.56707
1.55919
1.55118
1.54305
1.53484
1.52658
1.51829
1.51
1.50172
1.49345
1.48521
1.47698
1.46877
1.46058
1.45241
1.44427
1.43614
1.428
1.41983
1.41154
1.40302
1.39406
1.38431
1.37173
1.34936
7.38856e-07
2.22068e-05
0.00017469
0.000744732
0.00210513
0.00503368
0.00854116
0.0119833
0.014988
0.0173785
0.019117
0.0202434
0.0208535
0.0210132
0.020913
0.0206108
0.0200961
0.0194667
0.0187534
0.0179725
0.0171263
0.0162114
0.0152125
0.014108
0.0128805
0.0115048
0.00998131
0.00836968
0.00681187
0.00527806
0.00402589
0.00302099
0.00251434
0.00299791
0.00613437
0.0155386
0.0298286
0.0420618
0.0514887
0.059048
0.0671942
0.0780396
0.0918373
0.107195
0.122094
0.137537
0.154437
0.174043
0.194672
0.21748
0.24249
0.269409
0.298452
0.329099
0.360877
0.39334
0.426227
0.459175
0.491943
0.524317
0.556183
0.587622
0.61844
0.648675
0.678397
0.707618
0.736413
0.764842
0.792965
0.820838
0.848505
0.876007
0.903372
0.930626
0.957783
0.984855
1.01185
1.03876
1.0656
1.09235
1.11901
1.14556
1.17201
1.19833
1.22452
1.25056
1.27644
1.30214
1.32765
1.35296
1.37804
1.40289
1.42749
1.45182
1.47588
1.49964
1.5231
1.54624
1.56905
1.59152
1.61362
1.63534
1.65666
1.67755
1.69799
1.71796
1.73744
1.7564
1.77483
1.79271
1.81002
1.82675
1.84288
1.85839
1.87328
1.88753
1.90112
1.91406
1.92631
1.93789
1.94877
1.95895
1.96843
1.97719
1.98524
1.99256
1.99915
2.00501
2.01014
2.01454
2.0182
2.02113
2.02333
2.02478
2.02549
2.02571
2.0253
2.02412
2.02227
2.01978
2.01665
2.01291
2.00858
2.00368
1.99824
1.99228
1.98583
1.97891
1.97156
1.9638
1.95565
1.94716
1.93834
1.92922
1.91984
1.91021
1.90037
1.89034
1.88017
1.86988
1.8595
1.84907
1.83861
1.82814
1.81767
1.80719
1.79672
1.78625
1.77578
1.76532
1.75487
1.74444
1.73401
1.72356
1.71304
1.70238
1.69141
1.67988
1.66606
1.64529
2.47386e-06
7.41421e-05
0.000560657
0.00213824
0.00593768
0.0111702
0.0160873
0.0200498
0.0228893
0.024694
0.0256549
0.0259718
0.0258628
0.0254942
0.0248532
0.0240881
0.0232503
0.0223754
0.0214857
0.0205899
0.0196847
0.0187613
0.0178042
0.0167906
0.0156968
0.0144938
0.0131645
0.0117336
0.0102947
0.00890727
0.00740045
0.0065682
0.0077448
0.0139003
0.0293375
0.0485176
0.0656525
0.0794808
0.0906764
0.100998
0.111763
0.123386
0.135831
0.149097
0.164345
0.182677
0.203754
0.227599
0.253915
0.28253
0.313045
0.345126
0.378469
0.412631
0.447308
0.48229
0.517418
0.552531
0.587502
0.622225
0.656621
0.690687
0.724339
0.757603
0.790505
0.823066
0.855329
0.887337
0.919134
0.950759
0.982248
1.01363
1.04493
1.07616
1.10734
1.13847
1.16954
1.20056
1.23152
1.26241
1.29321
1.32391
1.3545
1.38497
1.41528
1.44544
1.47542
1.5052
1.53477
1.56411
1.5932
1.62203
1.65058
1.67884
1.70679
1.73441
1.76168
1.78859
1.81512
1.84124
1.86694
1.89219
1.91695
1.94121
1.96494
1.98812
2.01072
2.03272
2.05409
2.07481
2.09487
2.11424
2.13291
2.15086
2.16807
2.18452
2.20021
2.21512
2.22924
2.24256
2.25507
2.26676
2.27762
2.28764
2.29682
2.30516
2.31265
2.31928
2.32506
2.32997
2.33404
2.33724
2.33961
2.34106
2.34168
2.34173
2.34094
2.3393
2.33687
2.33368
2.32977
2.32514
2.31983
2.31387
2.30728
2.30009
2.29234
2.28405
2.27525
2.26597
2.25626
2.24613
2.23563
2.22478
2.21362
2.20218
2.19048
2.17855
2.16644
2.15419
2.14181
2.12936
2.11685
2.1043
2.09173
2.07915
2.06654
2.05392
2.04129
2.02866
2.01603
2.00342
1.99082
1.97822
1.96561
1.95294
1.94011
1.92692
1.91193
1.89166
7.77973e-06
0.00022784
0.00164306
0.00586257
0.0134276
0.0201742
0.0250364
0.0280791
0.029713
0.0303724
0.0303503
0.0299923
0.0292442
0.0283057
0.0272677
0.026193
0.0251248
0.0240889
0.0230981
0.0221522
0.0212419
0.0203519
0.0194606
0.0185382
0.0175621
0.0164878
0.015266
0.0138528
0.0122629
0.01113
0.0115865
0.0151986
0.0260049
0.0462267
0.0691471
0.0893915
0.105204
0.116826
0.125954
0.134548
0.14388
0.154601
0.168207
0.184978
0.204904
0.22821
0.254404
0.28301
0.313488
0.345445
0.378571
0.412606
0.447348
0.482617
0.51829
0.55428
0.590509
0.626886
0.663329
0.699758
0.736099
0.77232
0.808373
0.84425
0.879952
0.915487
0.950875
0.986141
1.02131
1.05642
1.09148
1.12651
1.16154
1.19657
1.23161
1.26665
1.30168
1.33669
1.37167
1.40661
1.44148
1.47626
1.51093
1.54548
1.57987
1.6141
1.64814
1.68197
1.71556
1.7489
1.78197
1.81474
1.84721
1.87935
1.91114
1.94256
1.97359
2.0042
2.03437
2.06408
2.09329
2.12198
2.15012
2.17768
2.20463
2.23095
2.25661
2.28157
2.30582
2.32932
2.35206
2.37402
2.39516
2.41548
2.43495
2.45356
2.47129
2.48812
2.50405
2.51906
2.53314
2.54628
2.55847
2.56971
2.57998
2.58929
2.59763
2.60498
2.61136
2.61676
2.62118
2.62462
2.6271
2.62853
2.62906
2.62887
2.62767
2.62554
2.62252
2.61863
2.61391
2.60838
2.60209
2.59504
2.58729
2.57886
2.56979
2.56011
2.54986
2.53906
2.52777
2.516
2.5038
2.49122
2.47827
2.465
2.45144
2.43761
2.42356
2.40933
2.39496
2.38048
2.36592
2.3513
2.33664
2.32195
2.30723
2.29247
2.27769
2.2629
2.2481
2.23333
2.21858
2.20387
2.18919
2.17453
2.15983
2.14494
2.12861
2.10801
2.46235e-05
0.000677848
0.0044539
0.0138473
0.0230704
0.0290738
0.0324335
0.0340601
0.0345773
0.0344032
0.0337608
0.0327199
0.0314801
0.0301432
0.0287888
0.0274739
0.026235
0.0250899
0.0240415
0.0230799
0.0221876
0.0213389
0.0205002
0.0196248
0.0186906
0.017788
0.0169879
0.0165165
0.0169599
0.0198426
0.027743
0.0435145
0.0657281
0.0885945
0.108846
0.124269
0.134839
0.142502
0.149524
0.1576
0.168728
0.183275
0.201324
0.222897
0.247637
0.2751
0.304572
0.335527
0.367596
0.400578
0.434333
0.468758
0.503778
0.539336
0.575392
0.611915
0.648858
0.686159
0.723747
0.761559
0.799533
0.837621
0.875777
0.913976
0.952201
0.990446
1.02871
1.06701
1.10536
1.14377
1.18226
1.22083
1.25949
1.29824
1.33708
1.37599
1.41496
1.45397
1.49299
1.532
1.57096
1.60986
1.64866
1.68734
1.72587
1.76423
1.80239
1.84032
1.87799
1.91539
1.95249
1.98926
2.02569
2.06176
2.09743
2.13269
2.16751
2.20186
2.2357
2.26902
2.30178
2.33395
2.36549
2.39638
2.42658
2.45607
2.4848
2.51276
2.5399
2.5662
2.59164
2.61619
2.63982
2.66252
2.68425
2.70502
2.72478
2.74354
2.76127
2.77796
2.7936
2.80818
2.8217
2.83413
2.84548
2.85574
2.8649
2.87296
2.87992
2.88578
2.89052
2.89418
2.89673
2.89811
2.89853
2.89802
2.89641
2.89376
2.8901
2.88547
2.87991
2.87344
2.86611
2.85794
2.84898
2.83925
2.82881
2.81768
2.80592
2.79354
2.78061
2.76714
2.7532
2.73881
2.72402
2.70886
2.69336
2.67758
2.66153
2.64528
2.62886
2.61231
2.59565
2.57892
2.56213
2.54528
2.5284
2.51147
2.4945
2.47752
2.46054
2.44358
2.42667
2.40982
2.39305
2.37637
2.35973
2.34304
2.32517
2.30366
7.34399e-05
0.00186077
0.0105448
0.0235745
0.0317419
0.0361106
0.0382007
0.0388736
0.0386511
0.0378125
0.036492
0.0349212
0.0332344
0.031537
0.0299075
0.0283981
0.0270366
0.0258289
0.0247659
0.0238277
0.0229878
0.0222117
0.0214459
0.0206527
0.019965
0.0196111
0.0202199
0.0229516
0.0296541
0.0429381
0.0619212
0.0831657
0.104046
0.122268
0.13616
0.145659
0.152461
0.159077
0.167773
0.179643
0.195149
0.214285
0.236755
0.262134
0.289805
0.319185
0.349757
0.381229
0.413453
0.446369
0.479952
0.514189
0.549081
0.584629
0.620834
0.657678
0.695126
0.733137
0.77166
0.810638
0.850016
0.889742
0.929769
0.970063
1.0106
1.05135
1.09232
1.13349
1.17488
1.21649
1.25831
1.30035
1.34261
1.38507
1.42772
1.47054
1.5135
1.55656
1.5997
1.64286
1.68602
1.72913
1.77216
1.81508
1.85785
1.90044
1.94282
1.98496
2.02682
2.06837
2.10959
2.15046
2.19094
2.23102
2.27065
2.30983
2.3485
2.38665
2.42425
2.46125
2.49762
2.53332
2.56833
2.6026
2.6361
2.6688
2.70066
2.73165
2.76173
2.79086
2.81902
2.84618
2.87232
2.8974
2.92141
2.94433
2.96613
2.98681
3.00633
3.0247
3.04189
3.0579
3.07271
3.08632
3.09872
3.1099
3.11986
3.1286
3.1361
3.14237
3.14741
3.15123
3.15382
3.15511
3.15536
3.15449
3.15242
3.14919
3.14485
3.13942
3.13296
3.12549
3.11705
3.10769
3.09744
3.08635
3.07446
3.06181
3.04845
3.03442
3.01977
3.00453
2.98875
2.97248
2.95576
2.93863
2.92113
2.9033
2.8852
2.86685
2.84832
2.82963
2.81081
2.7919
2.77292
2.75387
2.73477
2.71561
2.69642
2.67721
2.65801
2.63884
2.61973
2.60072
2.58182
2.56307
2.54442
2.52582
2.50622
2.48341
0.000190597
0.00440879
0.0195376
0.0323199
0.0389766
0.0421653
0.0433674
0.0433058
0.0424397
0.0409285
0.0390581
0.0370055
0.0349165
0.0329054
0.0310547
0.0294146
0.0280098
0.0268426
0.0259029
0.0251693
0.0246368
0.0243433
0.0243895
0.0249833
0.0264517
0.029344
0.0348644
0.0452007
0.0599392
0.0773664
0.0959927
0.113903
0.129451
0.141604
0.150585
0.157811
0.165362
0.175038
0.187876
0.20423
0.223971
0.246723
0.271989
0.299234
0.327915
0.357612
0.388064
0.41917
0.450912
0.483314
0.516408
0.550236
0.584836
0.620235
0.656441
0.693454
0.731259
0.769829
0.809124
0.849098
0.889701
0.930886
0.972607
1.01482
1.05751
1.10063
1.14417
1.18812
1.23247
1.27721
1.32234
1.36784
1.41371
1.45991
1.50643
1.55322
1.60025
1.64747
1.69483
1.74227
1.78974
1.83719
1.88458
1.93186
1.97899
2.02594
2.07267
2.11913
2.16529
2.21111
2.25656
2.30161
2.34625
2.39042
2.43411
2.47727
2.51988
2.56191
2.60331
2.64404
2.68408
2.72338
2.76189
2.79958
2.83642
2.87236
2.90736
2.94139
2.97441
3.00638
3.03727
3.06703
3.09566
3.12311
3.14937
3.17442
3.19822
3.22078
3.24206
3.26205
3.28075
3.29813
3.3142
3.32893
3.34233
3.35437
3.36507
3.37441
3.3824
3.38902
3.39429
3.39821
3.40077
3.40193
3.40193
3.40063
3.39803
3.39415
3.38905
3.38275
3.3753
3.36675
3.35713
3.34649
3.33487
3.32232
3.3089
3.29464
3.27961
3.26383
3.24737
3.23027
3.21258
3.19435
3.17562
3.15644
3.13686
3.11691
3.09666
3.07615
3.05544
3.03455
3.01352
2.99237
2.97114
2.94984
2.92847
2.90705
2.88559
2.86412
2.84266
2.82125
2.79993
2.77872
2.75766
2.73678
2.71607
2.69547
2.67403
2.64962
0.000424562
0.00894745
0.0286892
0.0401858
0.0456674
0.048019
0.0485204
0.0478317
0.0463026
0.0442329
0.0418587
0.0393787
0.0369588
0.0347262
0.0327702
0.0311408
0.0298671
0.0289339
0.0283544
0.028101
0.0281839
0.0288467
0.0304645
0.0337653
0.0394881
0.0481993
0.0599773
0.0737661
0.0889875
0.104609
0.119451
0.132497
0.143338
0.152291
0.160401
0.169207
0.180076
0.19387
0.21082
0.230759
0.2533
0.277984
0.304341
0.331942
0.360437
0.38961
0.419372
0.449727
0.480722
0.512422
0.544899
0.578218
0.612431
0.647576
0.683683
0.720763
0.758818
0.797832
0.83778
0.878626
0.920331
0.962852
1.00615
1.05018
1.09492
1.14032
1.18638
1.23306
1.28035
1.32823
1.37668
1.42569
1.47523
1.52525
1.57572
1.62659
1.67781
1.7293
1.781
1.83285
1.88476
1.93668
1.98856
2.04033
2.09195
2.14338
2.19456
2.24545
2.29601
2.3462
2.39597
2.4453
2.49415
2.5425
2.59029
2.63751
2.6841
2.73003
2.77527
2.81977
2.86349
2.90639
2.94841
2.98952
3.02967
3.06883
3.10695
3.14399
3.1799
3.21466
3.24821
3.28053
3.31158
3.34133
3.36976
3.39685
3.42257
3.44692
3.46986
3.49139
3.51149
3.53016
3.54737
3.56313
3.57742
3.59024
3.60157
3.61142
3.61979
3.62667
3.63207
3.63599
3.63842
3.63939
3.63901
3.6372
3.63396
3.62935
3.62339
3.61614
3.60762
3.59789
3.587
3.57498
3.5619
3.54781
3.53276
3.5168
3.49999
3.48239
3.46403
3.44499
3.42529
3.40501
3.38419
3.36288
3.34113
3.31899
3.29652
3.27379
3.25083
3.22769
3.20439
3.18096
3.15744
3.13384
3.11016
3.08643
3.06266
3.0389
3.01517
2.9915
2.96793
2.94451
2.92126
2.89822
2.8754
2.85276
2.82939
2.80329
0.000810199
0.0155346
0.0368237
0.0473308
0.0521003
0.0538916
0.0538848
0.052662
0.0506271
0.0480959
0.0453351
0.0425724
0.0399968
0.0377517
0.035942
0.0346167
0.0338799
0.0336644
0.0339832
0.0350604
0.0371472
0.0405772
0.0456829
0.0526618
0.061582
0.0723042
0.0844128
0.0972394
0.110111
0.122355
0.133509
0.143471
0.152568
0.161617
0.171676
0.183704
0.19827
0.215531
0.235308
0.257266
0.281015
0.30618
0.332429
0.359494
0.387196
0.415456
0.444277
0.473714
0.503851
0.534778
0.566582
0.599336
0.633107
0.667949
0.703904
0.740997
0.779244
0.818644
0.859185
0.900845
0.943597
0.987408
1.03224
1.07806
1.12484
1.17253
1.22112
1.27056
1.32085
1.37194
1.4238
1.47641
1.52972
1.58368
1.63823
1.6933
1.74881
1.8047
1.86088
1.91726
1.97374
2.03025
2.08672
2.14309
2.1993
2.2553
2.31103
2.36644
2.42147
2.47608
2.53022
2.58386
2.63697
2.68951
2.74143
2.79269
2.84326
2.89308
2.94213
2.99035
3.0377
3.08413
3.12959
3.17403
3.2174
3.25968
3.3008
3.34074
3.37943
3.41685
3.45293
3.48766
3.52098
3.55288
3.58332
3.61229
3.63977
3.66574
3.69018
3.71308
3.73442
3.7542
3.7724
3.78902
3.80404
3.81746
3.82928
3.83949
3.84808
3.85507
3.86045
3.86424
3.86643
3.86706
3.86618
3.86373
3.85976
3.8543
3.84738
3.83906
3.82937
3.81837
3.8061
3.79262
3.77799
3.76225
3.74548
3.72773
3.70906
3.68954
3.66921
3.64814
3.62638
3.60398
3.58099
3.55748
3.53349
3.5091
3.48437
3.45936
3.43411
3.40868
3.38308
3.35735
3.3315
3.30557
3.27956
3.2535
3.22742
3.20136
3.17535
3.14942
3.1236
3.09795
3.0725
3.04729
3.02234
2.99763
2.9723
2.94459
0.00130446
0.0225153
0.0445035
0.0545245
0.0588289
0.060168
0.0597571
0.0581216
0.0557078
0.0528822
0.0499553
0.0471847
0.0447798
0.0429075
0.0417528
0.0413289
0.0415585
0.0426178
0.04461
0.0476713
0.0519463
0.0575479
0.0645025
0.0727396
0.0821043
0.0922969
0.102915
0.113559
0.123912
0.133815
0.143313
0.152729
0.162661
0.173802
0.186734
0.201802
0.219066
0.238378
0.259468
0.282033
0.30579
0.330494
0.355953
0.38203
0.40866
0.435841
0.463626
0.492097
0.521358
0.551507
0.582637
0.614835
0.64818
0.682737
0.71856
0.755689
0.794152
0.833965
0.87513
0.917643
0.96149
1.00665
1.05309
1.10078
1.14968
1.19977
1.251
1.30334
1.35676
1.4112
1.46664
1.52301
1.58027
1.63834
1.69712
1.75654
1.8165
1.87692
1.93769
1.9987
2.05984
2.12102
2.18216
2.2432
2.30406
2.36467
2.42498
2.48492
2.54442
2.60343
2.66191
2.71982
2.77713
2.8338
2.88977
2.945
2.99943
3.05303
3.10575
3.15755
3.20838
3.25817
3.30689
3.35447
3.40087
3.44605
3.48996
3.53256
3.5738
3.61363
3.652
3.68889
3.72424
3.75802
3.79022
3.8208
3.84977
3.8771
3.90277
3.92678
3.94911
3.96975
3.98869
4.00592
4.02143
4.03522
4.04729
4.05763
4.06624
4.07313
4.0783
4.08177
4.08354
4.08364
4.08212
4.07889
4.07404
4.06759
4.05959
4.05008
4.03911
4.02673
4.01299
3.99795
3.98166
3.9642
3.94562
3.926
3.90539
3.88388
3.86151
3.83835
3.81446
3.7899
3.7647
3.73893
3.71267
3.68599
3.65897
3.63166
3.60412
3.57639
3.54848
3.52044
3.49228
3.46401
3.43567
3.40729
3.37891
3.35057
3.3223
3.29413
3.2661
3.23825
3.21061
3.18323
3.15615
3.12937
3.10209
3.07274
0.00191632
0.0288592
0.0515445
0.0615866
0.0657542
0.0668855
0.066208
0.0642772
0.0616309
0.0587252
0.055926
0.053512
0.0516728
0.0506843
0.0504257
0.0509882
0.0524582
0.0548708
0.0582584
0.062642
0.0680429
0.074415
0.0816558
0.0896299
0.0981619
0.107052
0.116131
0.125284
0.134496
0.143881
0.153717
0.1644
0.176337
0.189845
0.20509
0.222076
0.240677
0.260694
0.28191
0.304123
0.327163
0.3509
0.375246
0.400155
0.425631
0.451718
0.478496
0.506061
0.53452
0.56398
0.594541
0.626298
0.659341
0.693747
0.729583
0.7669
0.805736
0.846122
0.888081
0.93162
0.97674
1.02343
1.07167
1.12143
1.17269
1.22541
1.27955
1.33506
1.39188
1.44997
1.50926
1.56968
1.63115
1.69356
1.75678
1.82071
1.88524
1.95026
2.01567
2.08133
2.14714
2.21298
2.27877
2.34444
2.40991
2.4751
2.53992
2.60429
2.66814
2.73142
2.79409
2.85611
2.91746
2.97807
3.03788
3.09685
3.15492
3.21204
3.26817
3.32327
3.37727
3.43012
3.48176
3.53214
3.58122
3.62894
3.67527
3.72015
3.76355
3.8054
3.84568
3.88433
3.92132
3.95661
3.99016
4.02197
4.05204
4.08034
4.10688
4.13162
4.15457
4.17571
4.19503
4.21253
4.2282
4.24203
4.25404
4.26421
4.27254
4.27906
4.28375
4.28665
4.28777
4.28716
4.28479
4.28059
4.27468
4.2671
4.25787
4.24705
4.23468
4.2208
4.20549
4.18879
4.17077
4.1515
4.13104
4.10947
4.08687
4.06331
4.03885
4.01357
3.98753
3.96078
3.93334
3.90531
3.87677
3.84781
3.81851
3.78893
3.75911
3.7291
3.69893
3.66861
3.63817
3.6076
3.57697
3.54632
3.51569
3.48512
3.45465
3.4243
3.3941
3.36409
3.33431
3.30482
3.27565
3.24685
3.21766
3.18673
0.0026773
0.0344702
0.0586019
0.0688966
0.0730043
0.0739897
0.0730994
0.0709499
0.0681634
0.065333
0.0629216
0.0611803
0.0603135
0.0601128
0.0607548
0.062306
0.064729
0.0679948
0.0720778
0.0769522
0.0825624
0.0888302
0.0956727
0.103009
0.110772
0.118913
0.127424
0.136359
0.145848
0.156086
0.167297
0.179693
0.19342
0.208533
0.224999
0.242717
0.261548
0.281347
0.30198
0.323339
0.345345
0.367951
0.391143
0.414937
0.439376
0.464533
0.490503
0.517392
0.545303
0.574341
0.604613
0.63622
0.669259
0.703818
0.739975
0.777795
0.817336
0.858646
0.901762
0.94671
0.993501
1.04214
1.0926
1.14489
1.19895
1.25476
1.31227
1.37142
1.43213
1.4943
1.55786
1.62268
1.68865
1.75564
1.82347
1.89201
1.96112
2.03069
2.10062
2.17079
2.2411
2.31142
2.38169
2.45181
2.52171
2.59129
2.66041
2.72896
2.79685
2.86409
2.93064
2.99644
3.06146
3.12564
3.18891
3.25121
3.31248
3.37268
3.43175
3.48964
3.54632
3.6017
3.65575
3.70839
3.75959
3.8093
3.85748
3.90408
3.94906
3.99237
4.03397
4.07382
4.11188
4.14811
4.18249
4.21502
4.24569
4.27448
4.30137
4.32637
4.34945
4.37061
4.38985
4.40716
4.42254
4.43599
4.44752
4.45711
4.46478
4.47054
4.47441
4.47641
4.47656
4.47499
4.47148
4.46611
4.45896
4.45006
4.43945
4.42717
4.41327
4.39779
4.3808
4.36235
4.34252
4.32137
4.29899
4.27543
4.2508
4.22516
4.19859
4.17118
4.14299
4.11408
4.08443
4.05416
4.02339
3.99221
3.96069
3.92889
3.89685
3.86464
3.83226
3.79976
3.76711
3.73433
3.7015
3.66867
3.63588
3.60319
3.57061
3.53817
3.50591
3.47383
3.442
3.41047
3.37931
3.34857
3.31754
3.28518
0.00347462
0.0401185
0.0654911
0.0761529
0.080304
0.0812079
0.0800455
0.0775893
0.0747762
0.0722949
0.0705392
0.0696981
0.0695154
0.0700453
0.0714175
0.0736066
0.0765541
0.0802077
0.0845247
0.0894664
0.0949928
0.101073
0.107688
0.114828
0.122503
0.130753
0.139652
0.149296
0.159802
0.171284
0.183822
0.197465
0.21221
0.228011
0.244788
0.262448
0.280901
0.30007
0.319898
0.340351
0.36142
0.383115
0.405464
0.428524
0.452361
0.477041
0.50267
0.529354
0.557204
0.586333
0.616855
0.648877
0.682505
0.717839
0.75497
0.793977
0.834928
0.877886
0.9229
0.970009
1.01924
1.07058
1.12403
1.17957
1.23715
1.29675
1.35829
1.42169
1.48684
1.55362
1.62185
1.69137
1.76202
1.83364
1.90605
1.97909
2.05257
2.12631
2.20032
2.27457
2.34895
2.42332
2.49762
2.57177
2.64566
2.71915
2.79209
2.86433
2.93583
3.00658
3.07651
3.14559
3.21374
3.28091
3.34703
3.41203
3.47584
3.53841
3.59971
3.65969
3.71829
3.77546
3.83113
3.88527
3.93781
3.98872
4.03795
4.08548
4.13125
4.17523
4.21738
4.25765
4.296
4.33243
4.36693
4.39948
4.43006
4.45865
4.48525
4.50983
4.5324
4.55296
4.5715
4.58803
4.60256
4.61508
4.6256
4.63413
4.64066
4.64521
4.64783
4.64852
4.64743
4.64447
4.63954
4.63275
4.62412
4.6137
4.6015
4.58759
4.572
4.55478
4.53599
4.5157
4.49396
4.47087
4.44649
4.4209
4.39418
4.36643
4.33773
4.30817
4.27782
4.24676
4.21497
4.18259
4.14972
4.11643
4.0828
4.04889
4.01475
3.98044
3.94599
3.91143
3.87671
3.84185
3.80697
3.77211
3.73732
3.70265
3.6681
3.63373
3.59954
3.56553
3.53178
3.49837
3.46535
3.43282
3.40007
3.36648
0.00430281
0.0457463
0.0723424
0.0833979
0.0876132
0.0884052
0.0869111
0.084282
0.0816846
0.0797358
0.0787635
0.0784893
0.0788679
0.0799453
0.0817868
0.0843526
0.0875857
0.0914427
0.0958986
0.100943
0.106575
0.112804
0.119652
0.127158
0.135372
0.144353
0.15416
0.164848
0.176458
0.188991
0.202449
0.216812
0.232023
0.24802
0.264745
0.282151
0.300203
0.318888
0.338207
0.358178
0.378832
0.400223
0.422442
0.445572
0.469614
0.494621
0.520791
0.548221
0.577017
0.607295
0.639173
0.672757
0.708163
0.745496
0.784856
0.826326
0.869979
0.915868
0.964036
1.01452
1.06736
1.12254
1.17999
1.23968
1.30157
1.36561
1.43173
1.49985
1.56983
1.6415
1.71461
1.78885
1.86402
1.93999
2.01666
2.09383
2.17128
2.24877
2.32647
2.40432
2.48216
2.55989
2.63749
2.715
2.79218
2.86884
2.94485
3.02011
3.09458
3.16812
3.24067
3.31218
3.38257
3.45179
3.51975
3.58639
3.65165
3.71549
3.77789
3.83879
3.89816
3.95595
4.01209
4.06654
4.11925
4.17019
4.21932
4.26663
4.31206
4.35559
4.39717
4.43676
4.47433
4.50988
4.54339
4.57487
4.60429
4.63166
4.65695
4.68018
4.70134
4.72044
4.73748
4.75247
4.76544
4.77638
4.78529
4.79219
4.79707
4.79996
4.8009
4.80005
4.79734
4.7926
4.78595
4.77743
4.76705
4.75486
4.74088
4.72515
4.70771
4.68863
4.66794
4.64573
4.62204
4.59696
4.57057
4.54295
4.51417
4.48435
4.45356
4.42189
4.38943
4.35627
4.32249
4.28815
4.25332
4.21808
4.18249
4.14661
4.11051