/*--------------------------------*- C++ -*----------------------------------*\
  =========                 |
  \\      /  F ield         | OpenFOAM: The Open Source CFD Toolbox
   \\    /   O peration     | Website:  https://openfoam.org
    \\  /    A nd           | Version:  13
     \\/     M anipulation  |
\*---------------------------------------------------------------------------*/
FoamFile
{
    format      ascii;
    class       volScalarField;
    location    "900";
    object      nut;
}
// * * * * * * * * * * * * * * * * * * * * * * * * * * * * * * * * * * * * * //

dimensions      [0 2 -1 0 0 0 0];

internalField   nonuniform List<scalar> 
12225
(
5.50165e-06
1.22344e-05
1.53705e-05
1.67871e-05
2.43246e-05
2.12874e-05
2.14834e-05
1.58387e-05
2.70144e-05
3.01391e-05
2.78057e-05
3.10553e-05
3.56e-05
3.2534e-05
2.74083e-05
3.2494e-05
2.75745e-05
3.14085e-05
0.000243012
9.48543e-05
5.16657e-05
4.01903e-05
3.92639e-05
2.27338e-05
2.44516e-05
2.52795e-05
2.4964e-05
2.88004e-05
2.78069e-05
2.73273e-05
2.60298e-05
2.97779e-05
3.01353e-05
3.31095e-05
3.61573e-05
3.80548e-05
0.00106698
0.000242732
6.77536e-05
3.17405e-05
1.72143e-05
1.05447e-05
1.08862e-05
1.02726e-05
8.37383e-06
8.15974e-06
7.60273e-06
8.18883e-06
8.63599e-06
9.74791e-06
1.06415e-05
1.18503e-05
1.22573e-05
1.2894e-05
0.0026802
0.00176709
0.00010799
0.000143943
3.30913e-05
2.68666e-05
1.71296e-05
1.29818e-05
8.34129e-06
5.1164e-06
5.89194e-06
4.55116e-06
3.86707e-06
3.63278e-06
3.73868e-06
3.89636e-06
4.14154e-06
4.38794e-06
0.00108757
0.00130385
0.000627918
0.000318837
0.000283601
0.000147944
4.91804e-05
2.695e-05
3.21493e-05
2.54583e-05
2.28492e-05
2.21414e-05
2.10929e-05
2.08954e-05
2.00256e-05
1.96138e-05
1.98447e-05
1.91791e-05
0.000876766
0.000759827
0.000451699
0.000430255
0.000343762
0.000250092
0.00013271
0.000115217
7.90411e-05
8.82858e-05
7.30918e-05
6.66407e-05
6.43679e-05
6.80332e-05
6.89084e-05
6.96018e-05
7.11431e-05
7.03775e-05
0.000802065
0.00097895
0.000673188
0.000392334
0.000286387
0.000234729
0.000207322
0.000188861
0.0001952
0.00018811
0.000178161
0.000162788
0.000157989
0.000155502
0.000159078
0.000161542
0.000165807
0.000162518
0.00145771
0.000503342
0.000616601
0.000530886
0.000467363
0.000357
0.000354821
0.000326591
0.000293362
0.000301062
0.000290693
0.000287561
0.000284745
0.000284148
0.000284578
0.0002899
0.00029412
0.000290281
0.000915726
0.000875845
0.000721231
0.000616773
0.000565607
0.000521096
0.000494273
0.000481658
0.000474376
0.000464025
0.000466309
0.000450024
0.000446694
0.000454909
0.000445992
0.000448683
0.000448826
0.000444365
0.000861774
0.00085698
0.000822031
0.000765535
0.000727413
0.000698002
0.000672701
0.000656501
0.000642965
0.000632734
0.000623604
0.000625336
0.000610927
0.000612535
0.000613334
0.000609195
0.000606146
0.000597391
0.00084985
0.000851625
0.000849341
0.000830095
0.00081637
0.000800801
0.000783543
0.00077293
0.000764655
0.000750851
0.00075255
0.000739808
0.000741035
0.000737715
0.000733798
0.000727655
0.000723652
0.000716329
0.000850432
0.000850529
0.000848957
0.000844622
0.000841162
0.000835548
0.000829931
0.000823981
0.000818669
0.000812947
0.000811681
0.000804058
0.000802322
0.000799837
0.00079667
0.000792279
0.000788709
0.000784171
0.000851427
0.000850729
0.00084958
0.000848119
0.000847064
0.000845636
0.000844361
0.000842469
0.000840798
0.000838579
0.000836793
0.000834452
0.000832444
0.000830124
0.000828089
0.000825684
0.000823548
0.000820845
0.000851532
0.000850708
0.000849839
0.000848927
0.000848177
0.000847396
0.000846742
0.00084595
0.000845249
0.000844352
0.00084356
0.000842544
0.000841667
0.000840565
0.000839694
0.000838556
0.000837764
0.000836591
0.000851541
0.000850677
0.000849866
0.000849061
0.000848331
0.000847612
0.000846966
0.000846311
0.00084572
0.000845098
0.000844531
0.000843922
0.00084337
0.000842776
0.000842248
0.000841682
0.000841186
0.000840649
0.000851539
0.000850673
0.000849857
0.000849073
0.000848335
0.000847626
0.00084696
0.000846318
0.000845713
0.000845127
0.000844573
0.000844034
0.000843524
0.000843027
0.000842555
0.000842098
0.000841663
0.00084124
0.000851537
0.000850673
0.000849852
0.00084907
0.000848328
0.00084762
0.000846947
0.000846305
0.000845693
0.000845108
0.000844551
0.000844017
0.000843507
0.000843018
0.00084255
0.000842101
0.000841673
0.00084126
0.000851538
0.000850677
0.000849857
0.000849077
0.000848335
0.000847628
0.000846953
0.000846311
0.000845698
0.000845112
0.000844553
0.000844018
0.000843507
0.000843017
0.000842548
0.000842099
0.000841668
0.000841256
0.000851537
0.000850673
0.000849851
0.000849069
0.000848324
0.000847615
0.000846938
0.000846294
0.000845679
0.000845092
0.000844531
0.000843995
0.000843481
0.00084299
0.000842518
0.000842067
0.000841633
0.000841219
0.000851538
0.000850672
0.000849852
0.000849069
0.000848326
0.000847616
0.000846939
0.000846296
0.000845681
0.000845103
0.000844538
0.000844005
0.00084347
0.000842962
0.000842452
0.000841969
0.000841486
0.000841036
0.000851556
0.000850657
0.000849868
0.000849067
0.000848342
0.000847616
0.00084695
0.000846313
0.000845721
0.000845177
0.000844594
0.000843999
0.000843271
0.000842565
0.000841666
0.000840844
0.000839907
0.000839011
0.000851632
0.00085057
0.000849947
0.000849024
0.000848376
0.000847636
0.000846939
0.000846492
0.000845673
0.000845669
0.000845152
0.00084269
0.000843619
0.000840993
0.00083662
0.000835315
0.000830589
0.000825481
0.000851754
0.000850416
0.000850125
0.000848868
0.000848361
0.000847931
0.000846799
0.00084632
0.000847545
0.000842753
0.00083752
0.000828795
0.000817356
0.000804629
0.000789861
0.000775181
0.000760389
0.000746522
0.000851865
0.000850316
0.00085026
0.000847843
0.000848704
0.000846776
0.000847036
0.000843654
0.000834792
0.000817243
0.000800229
0.000770122
0.000740753
0.000708934
0.000673646
0.000639641
0.000608864
0.00058017
0.000852513
0.000848549
0.000847521
0.000841694
0.000839926
0.000835541
0.00082642
0.00081843
0.000784025
0.000754337
0.000717229
0.00066284
0.000634395
0.000599891
0.000546262
0.000503948
0.000463985
0.000425193
0.000848549
0.000824068
0.00081649
0.000795729
0.000790179
0.00077182
0.000735181
0.000709199
0.000662204
0.000622977
0.000559974
0.000507015
0.000464862
0.000424482
0.000385613
0.000339299
0.000281409
0.000232354
0.000823432
0.000707647
0.000683275
0.000611566
0.000585085
0.000536312
0.00048152
0.000443723
0.000392881
0.000351355
0.000306006
0.000262963
0.000225805
0.000192042
0.000159513
0.000135742
0.000114063
9.02083e-05
0.000741731
0.000421347
0.000352739
0.000290638
0.000239738
0.000206772
0.000179305
0.000159398
0.000140192
0.000121537
0.000100257
8.47496e-05
7.5052e-05
6.57051e-05
5.87643e-05
5.37143e-05
4.85393e-05
4.44434e-05
0.000575612
0.000118009
8.3927e-05
6.63297e-05
5.96995e-05
5.587e-05
5.51926e-05
5.46524e-05
5.53011e-05
5.55842e-05
5.67084e-05
5.72428e-05
5.73331e-05
5.77636e-05
5.8907e-05
5.9453e-05
5.84582e-05
5.88932e-05
1.24293e-05
1.64639e-05
1.92732e-05
2.0934e-05
2.18814e-05
2.21129e-05
2.21983e-05
2.20156e-05
2.17294e-05
2.14034e-05
2.10688e-05
2.07373e-05
2.04139e-05
2.01144e-05
1.98306e-05
1.95757e-05
1.93288e-05
1.91202e-05
1.39427e-12
1.57267e-10
8.07504e-10
3.20391e-09
1.07893e-08
3.32205e-08
8.73564e-08
1.7526e-07
2.85998e-07
4.03374e-07
5.09483e-07
5.92542e-07
6.48553e-07
6.71791e-07
6.63772e-07
6.39394e-07
5.89272e-07
5.09045e-07
4.32857e-07
3.68606e-07
3.08268e-07
2.49937e-07
1.9326e-07
1.40664e-07
9.30399e-08
5.54354e-08
2.98428e-08
1.50911e-08
7.60388e-09
4.03046e-09
2.33687e-09
1.6207e-09
1.60033e-09
2.95047e-09
6.93785e-09
1.70701e-08
7.8049e-08
1.74148e-07
3.18866e-07
4.18947e-07
4.11723e-07
3.64548e-07
2.88197e-07
2.5232e-07
2.62391e-07
3.16273e-07
3.96937e-07
6.3489e-07
1.11085e-06
2.6089e-06
7.59145e-06
1.91592e-05
3.37787e-05
4.6796e-05
5.51139e-05
5.30128e-05
4.62134e-05
4.24544e-05
3.81919e-05
3.96787e-05
3.7912e-05
3.36577e-05
3.46392e-05
3.58815e-05
3.10475e-05
3.30319e-05
3.33941e-05
3.40115e-05
3.45627e-05
3.51539e-05
3.5675e-05
3.62427e-05
3.67614e-05
3.73021e-05
3.78193e-05
3.83426e-05
3.88549e-05
3.93678e-05
3.98747e-05
4.03809e-05
4.08833e-05
4.13847e-05
4.18836e-05
4.23817e-05
4.28782e-05
4.33738e-05
4.38684e-05
4.4362e-05
4.48547e-05
4.53462e-05
4.58365e-05
4.63253e-05
4.68121e-05
4.72967e-05
4.77787e-05
4.82575e-05
4.8733e-05
4.9205e-05
4.96743e-05
5.01422e-05
5.06126e-05
5.10916e-05
5.15785e-05
5.20636e-05
5.2554e-05
5.30488e-05
5.35491e-05
5.40553e-05
5.45679e-05
5.50874e-05
5.56146e-05
5.61499e-05
5.66941e-05
5.72479e-05
5.78121e-05
5.83876e-05
5.89751e-05
5.95758e-05
6.01905e-05
6.08204e-05
6.14667e-05
6.21309e-05
6.28143e-05
6.35185e-05
6.42452e-05
6.49963e-05
6.57742e-05
6.65811e-05
6.74204e-05
6.83077e-05
6.91901e-05
7.01648e-05
7.11015e-05
7.21436e-05
7.32149e-05
7.4363e-05
7.55649e-05
7.68287e-05
7.73141e-05
7.7057e-05
7.67878e-05
7.65055e-05
7.62121e-05
7.59078e-05
7.55934e-05
7.52696e-05
7.49368e-05
7.4596e-05
7.42476e-05
7.38925e-05
7.35312e-05
7.31647e-05
7.27933e-05
7.24178e-05
7.20388e-05
7.16569e-05
7.12733e-05
7.08885e-05
7.05048e-05
7.01224e-05
6.97434e-05
6.93665e-05
6.89947e-05
6.86259e-05
6.82634e-05
6.79038e-05
6.75511e-05
6.72012e-05
6.68588e-05
6.65192e-05
6.61874e-05
6.58573e-05
6.55332e-05
6.52074e-05
6.48805e-05
6.45381e-05
6.41764e-05
6.37549e-05
6.32262e-05
6.18166e-05
6.6751e-12
1.08073e-09
1.47206e-08
7.90956e-08
3.38873e-07
1.14322e-06
2.61331e-06
4.78581e-06
7.4687e-06
1.05056e-05
1.36032e-05
1.6492e-05
1.89543e-05
2.08085e-05
2.19337e-05
2.22664e-05
2.19633e-05
2.1239e-05
1.91488e-05
1.62295e-05
1.26005e-05
9.33788e-06
6.6099e-06
4.50157e-06
2.84247e-06
1.76536e-06
1.07094e-06
6.63204e-07
4.09549e-07
2.61989e-07
1.82539e-07
1.44515e-07
1.47464e-07
2.1751e-07
4.68992e-07
9.42145e-07
4.6619e-06
1.0087e-05
1.71267e-05
2.13285e-05
2.18307e-05
2.03192e-05
1.77939e-05
1.5886e-05
1.59859e-05
1.67711e-05
1.6919e-05
2.02704e-05
2.79027e-05
3.81639e-05
4.8311e-05
5.92373e-05
6.90664e-05
7.90718e-05
8.91507e-05
9.94814e-05
0.000108587
0.000120326
0.0001339
0.000147582
0.000160038
0.000170052
0.000183869
0.000198677
0.000206004
0.000219448
0.000230369
0.000241457
0.00025193
0.000262126
0.000271985
0.000281537
0.000290862
0.000299944
0.000308843
0.000317561
0.000326127
0.000334552
0.000342848
0.000351027
0.000359094
0.000367056
0.000374918
0.000382685
0.000390358
0.00039794
0.000405434
0.00041284
0.000420159
0.000427393
0.000434539
0.000441598
0.000448566
0.00045544
0.00046221
0.000468863
0.000475377
0.000481717
0.000487834
0.00049365
0.000499055
0.000503897
0.000508336
0.000512787
0.000517051
0.000521229
0.000525269
0.000529192
0.000532984
0.000536648
0.00054018
0.000543578
0.000546839
0.000549961
0.000552942
0.000555781
0.000558476
0.000561025
0.000563426
0.000565678
0.000567778
0.000569726
0.000571518
0.000573154
0.00057463
0.000575946
0.000577098
0.000578088
0.000578917
0.000579586
0.000580085
0.000580477
0.000580634
0.000580646
0.000580427
0.000580165
0.000579783
0.000579407
0.000579137
0.000578856
0.000578421
0.000577844
0.00057713
0.000576286
0.000575315
0.000574222
0.000573012
0.000571692
0.000570264
0.000568736
0.000567113
0.000565401
0.000563603
0.000561726
0.00055977
0.000557742
0.000555648
0.000553495
0.000551297
0.000549065
0.000546805
0.000544524
0.000542234
0.000539934
0.000537633
0.000535323
0.000533012
0.00053069
0.000528367
0.000526033
0.000523697
0.000521337
0.000518949
0.000516495
0.000513934
0.000511159
0.00050807
0.000504339
0.000499225
0.000484238
1.82982e-11
3.15813e-09
6.00255e-08
3.65475e-07
1.00333e-06
2.82909e-06
6.01111e-06
1.0484e-05
1.60514e-05
2.24034e-05
2.91871e-05
3.59026e-05
4.19808e-05
4.70834e-05
5.09964e-05
5.35533e-05
5.50486e-05
5.54621e-05
5.41951e-05
5.15154e-05
4.7105e-05
4.14577e-05
3.44113e-05
2.72848e-05
2.06244e-05
1.48823e-05
1.01218e-05
6.75947e-06
4.26156e-06
2.78014e-06
1.90278e-06
1.4423e-06
1.2144e-06
1.36123e-06
2.98461e-06
7.05053e-06
2.26458e-05
4.32545e-05
5.77117e-05
6.30049e-05
5.85617e-05
4.6472e-05
3.95137e-05
4.07136e-05
4.71829e-05
5.41408e-05
6.3523e-05
7.56419e-05
8.73593e-05
9.9766e-05
0.000116335
0.000134564
0.000155957
0.000180215
0.000206899
0.000235127
0.000264602
0.000295506
0.000326747
0.000356631
0.000384807
0.000412265
0.000438538
0.000466074
0.000489143
0.000512889
0.000535437
0.000556964
0.000577755
0.00059789
0.00061746
0.000636517
0.000655161
0.00067341
0.000691334
0.00070895
0.000726295
0.000743385
0.00076024
0.000776871
0.000793289
0.0008095
0.000825509
0.000841321
0.000856939
0.000872362
0.000887591
0.000902626
0.000917465
0.000932103
0.000946534
0.000960749
0.000974738
0.000988486
0.00100197
0.00101517
0.00102805
0.00104057
0.00105269
0.00106435
0.00107555
0.0010863
0.00109679
0.00110708
0.00111709
0.00112685
0.00113634
0.00114556
0.0011545
0.00116316
0.00117152
0.00117959
0.00118736
0.00119483
0.00120199
0.00120883
0.00121536
0.00122158
0.00122747
0.00123303
0.00123827
0.00124318
0.00124775
0.00125199
0.00125589
0.00125944
0.00126266
0.00126552
0.00126805
0.00127023
0.00127206
0.00127356
0.00127467
0.00127547
0.00127585
0.00127606
0.00127607
0.00127585
0.00127541
0.00127471
0.00127368
0.00127233
0.00127068
0.00126873
0.00126651
0.00126401
0.00126125
0.00125824
0.001255
0.00125154
0.00124788
0.00124402
0.00123997
0.00123576
0.00123137
0.00122683
0.00122215
0.00121734
0.00121243
0.00120744
0.0012024
0.00119731
0.00119221
0.00118709
0.00118197
0.00117685
0.00117173
0.00116659
0.00116146
0.00115632
0.00115117
0.00114599
0.00114075
0.00113537
0.00112976
0.00112373
0.00111696
0.00110882
0.00109728
0.00107024
6.44544e-11
1.09275e-08
1.7552e-07
7.79504e-07
2.37088e-06
6.59647e-06
1.31586e-05
2.20128e-05
3.2509e-05
4.35807e-05
5.43351e-05
6.43387e-05
7.29672e-05
7.96898e-05
8.47348e-05
8.8074e-05
8.95124e-05
8.9455e-05
8.80448e-05
8.51886e-05
8.08526e-05
7.55875e-05
6.85149e-05
6.00392e-05
5.04684e-05
4.07891e-05
3.15582e-05
2.38252e-05
1.76715e-05
1.28681e-05
9.50033e-06
7.18117e-06
6.188e-06
7.87491e-06
1.56664e-05
3.47536e-05
5.68213e-05
7.23521e-05
7.74699e-05
7.35883e-05
7.09547e-05
7.18033e-05
7.61732e-05
8.41927e-05
9.53949e-05
0.00010918
0.000120882
0.000140729
0.000162548
0.000189078
0.000220853
0.000255857
0.000295068
0.000336832
0.000380453
0.000424469
0.000468616
0.000512583
0.000555403
0.000596715
0.00063555
0.00067462
0.000710896
0.000746593
0.000780316
0.000812999
0.000844485
0.000874951
0.000904576
0.000933447
0.000961666
0.000989303
0.00101644
0.0010431
0.00106936
0.00109523
0.00112075
0.00114592
0.00117077
0.00119531
0.00121953
0.00124345
0.00126707
0.00129039
0.0013134
0.00133611
0.00135851
0.0013806
0.00140237
0.00142381
0.00144492
0.00146568
0.00148607
0.00150609
0.00152571
0.00154491
0.00156367
0.00158196
0.00159978
0.00161711
0.00163397
0.00165041
0.00166649
0.00168221
0.00169754
0.00171247
0.001727
0.0017411
0.00175479
0.00176803
0.00178084
0.0017932
0.0018051
0.00181655
0.00182753
0.00183804
0.00184808
0.00185764
0.00186672
0.00187531
0.00188341
0.00189103
0.00189814
0.00190477
0.00191089
0.00191651
0.00192162
0.00192623
0.00193034
0.00193395
0.00193704
0.00193962
0.00194169
0.00194323
0.00194424
0.001945
0.00194536
0.00194526
0.00194472
0.00194375
0.0019423
0.00194039
0.00193804
0.00193526
0.00193206
0.00192847
0.00192449
0.00192016
0.00191548
0.00191047
0.00190517
0.00189957
0.00189371
0.00188759
0.00188124
0.00187467
0.00186789
0.00186094
0.00185384
0.00184663
0.00183932
0.00183196
0.00182457
0.00181716
0.00180974
0.0018023
0.00179486
0.00178741
0.00177995
0.00177249
0.00176501
0.00175749
0.00174989
0.00174212
0.00173403
0.00172539
0.00171579
0.00170424
0.00168822
0.00165652
2.15808e-10
3.24461e-08
3.89674e-07
1.83069e-06
6.38388e-06
1.54673e-05
2.88288e-05
4.48537e-05
6.16625e-05
7.75733e-05
9.13674e-05
0.000101989
0.000109813
0.00011545
0.00011885
0.000120575
0.000120766
0.000119542
0.000117066
0.000113433
0.000108477
0.000102746
9.58343e-05
8.7551e-05
7.78795e-05
6.71434e-05
5.58488e-05
4.53271e-05
3.63413e-05
2.91744e-05
2.31197e-05
1.97342e-05
2.08912e-05
3.0457e-05
5.27868e-05
7.40306e-05
8.61175e-05
9.15181e-05
9.39276e-05
9.67654e-05
0.000102245
0.000111513
0.000125402
0.000137343
0.000150431
0.000172478
0.000200906
0.00023316
0.000271284
0.0003144
0.000361686
0.000411664
0.000464235
0.000517859
0.000571877
0.0006254
0.000678191
0.000729953
0.000780274
0.000828997
0.000875549
0.000921558
0.000965621
0.00100831
0.00104947
0.00108948
0.00112836
0.00116626
0.00120328
0.00123954
0.0012751
0.00131004
0.00134442
0.00137828
0.00141166
0.00144458
0.00147707
0.00150913
0.00154078
0.00157201
0.00160284
0.00163326
0.00166327
0.00169287
0.00172205
0.00175081
0.00177915
0.00180707
0.00183454
0.00186157
0.00188814
0.00191425
0.00193987
0.00196501
0.00198965
0.00201377
0.00203736
0.00206042
0.00208295
0.00210497
0.00212647
0.00214749
0.00216802
0.00218806
0.0022076
0.00222662
0.00224511
0.00226306
0.00228046
0.0022973
0.00231358
0.00232927
0.00234439
0.00235892
0.00237286
0.00238621
0.00239895
0.00241109
0.00242263
0.00243355
0.00244387
0.00245357
0.00246265
0.00247111
0.00247896
0.00248618
0.00249278
0.00249876
0.00250412
0.00250886
0.00251299
0.00251646
0.00251932
0.0025215
0.00252308
0.00252434
0.002525
0.00252506
0.00252456
0.00252349
0.00252186
0.00251968
0.00251695
0.00251372
0.00250998
0.00250576
0.00250108
0.00249596
0.00249042
0.00248449
0.00247819
0.00247155
0.00246457
0.00245729
0.00244972
0.00244188
0.00243379
0.00242549
0.002417
0.00240837
0.00239962
0.00239079
0.0023819
0.00237297
0.00236402
0.00235505
0.00234604
0.00233702
0.00232796
0.00231887
0.00230975
0.00230057
0.0022913
0.00228184
0.00227205
0.00226168
0.00225029
0.00223682
0.00221858
0.00218709
6.78668e-10
7.92288e-08
9.60705e-07
4.89898e-06
1.6188e-05
3.44272e-05
5.65014e-05
7.93474e-05
9.97264e-05
0.000116107
0.000128299
0.00013739
0.000143035
0.000146085
0.000147181
0.000146776
0.00014514
0.000142424
0.000138774
0.000134181
0.000128575
0.000122364
0.000115126
0.000106738
9.72505e-05
8.34449e-05
6.85855e-05
5.44384e-05
4.17933e-05
3.31719e-05
3.08554e-05
3.51256e-05
5.03298e-05
7.36122e-05
9.30428e-05
0.000105577
0.000112978
0.000118175
0.000124747
0.000135681
0.000152471
0.00016169
0.000175745
0.000199513
0.000228528
0.000264278
0.00030647
0.000353501
0.000405556
0.000460771
0.00051847
0.000577614
0.000637752
0.00069798
0.000757814
0.000816805
0.000874788
0.000931306
0.000986401
0.00104058
0.00109279
0.00114391
0.00119344
0.00124166
0.00128858
0.00133439
0.00137915
0.00142297
0.00146593
0.00150812
0.0015496
0.00159043
0.00163067
0.00167033
0.00170945
0.00174805
0.00178614
0.00182371
0.00186079
0.00189736
0.00193342
0.00196897
0.00200401
0.00203852
0.00207252
0.00210598
0.00213891
0.00217131
0.00220316
0.00223446
0.0022652
0.00229537
0.00232497
0.00235399
0.00238242
0.00241026
0.0024375
0.00246415
0.0024902
0.00251567
0.00254056
0.00256487
0.0025886
0.00261173
0.00263425
0.00265617
0.00267745
0.0026981
0.0027181
0.00273745
0.00275613
0.00277413
0.00279147
0.00280812
0.00282409
0.00283938
0.00285398
0.00286788
0.0028811
0.00289362
0.00290544
0.00291657
0.00292699
0.00293672
0.00294576
0.00295409
0.00296172
0.00296866
0.0029749
0.00298049
0.00298537
0.0029895
0.00299297
0.00299566
0.00299775
0.00299941
0.00300036
0.00300064
0.00300028
0.00299929
0.00299769
0.00299548
0.00299269
0.00298933
0.00298544
0.00298102
0.0029761
0.00297069
0.00296483
0.00295855
0.00295186
0.00294479
0.00293735
0.00292958
0.00292148
0.00291309
0.00290442
0.0028955
0.00288638
0.00287707
0.00286763
0.00285808
0.00284844
0.00283875
0.002829
0.0028192
0.00280935
0.00279945
0.00278951
0.00277952
0.00276948
0.00275937
0.00274916
0.00273877
0.00272806
0.00271682
0.00270464
0.00269056
0.00267208
0.00264285
2.14804e-09
1.99793e-07
2.52706e-06
1.3379e-05
3.54539e-05
6.36772e-05
9.11628e-05
0.000113652
0.000130818
0.000143778
0.000153194
0.000159164
0.000162459
0.000163747
0.000163501
0.000162042
0.000159573
0.000156212
0.000151924
0.00014665
0.000140508
0.000133484
0.000125178
0.000111881
9.58549e-05
8.1816e-05
6.90775e-05
5.81846e-05
5.17718e-05
5.35559e-05
6.51161e-05
8.28845e-05
0.000104789
0.00012035
0.000131793
0.000139982
0.000147802
0.000159212
0.000176098
0.000183715
0.00019771
0.000220789
0.000249118
0.000285208
0.000327369
0.000376117
0.000429954
0.000487435
0.000547871
0.000610055
0.000673469
0.000737462
0.000801598
0.000865365
0.00092847
0.000990304
0.00105118
0.00111134
0.00116997
0.00122739
0.00128338
0.00133817
0.00139166
0.00144396
0.00149512
0.00154524
0.0015944
0.00164266
0.00169009
0.00173677
0.00178274
0.00182804
0.00187272
0.00191679
0.00196028
0.00200318
0.0020455
0.00208724
0.0021284
0.00216897
0.00220894
0.0022483
0.00228705
0.00232519
0.0023627
0.00239959
0.00243585
0.00247147
0.00250646
0.0025408
0.00257451
0.00260756
0.00263997
0.00267172
0.00270281
0.00273325
0.00276302
0.00279213
0.00282057
0.00284833
0.00287543
0.00290186
0.00292764
0.00295274
0.00297716
0.00300089
0.00302393
0.00304627
0.00306789
0.0030888
0.00310901
0.00312849
0.00314725
0.00316526
0.00318254
0.00319908
0.00321487
0.00322992
0.00324423
0.00325779
0.0032706
0.00328267
0.00329399
0.00330456
0.00331439
0.00332347
0.00333181
0.00333941
0.00334628
0.00335248
0.00335787
0.00336251
0.00336644
0.00336954
0.00337206
0.00337403
0.00337524
0.00337576
0.0033756
0.00337477
0.0033733
0.00337121
0.0033685
0.00336522
0.00336137
0.00335699
0.00335214
0.00334684
0.00334107
0.00333487
0.00332825
0.00332124
0.00331385
0.00330611
0.00329803
0.00328963
0.00328094
0.00327199
0.0032628
0.00325342
0.00324388
0.0032342
0.00322441
0.00321453
0.00320457
0.00319453
0.00318441
0.00317422
0.00316396
0.00315362
0.00314322
0.00313274
0.00312216
0.00311141
0.00310039
0.00308891
0.00307665
0.00306281
0.00304544
0.00301949
6.40656e-09
5.23955e-07
6.73348e-06
2.87473e-05
6.16673e-05
9.53424e-05
0.000123416
0.000144531
0.000159074
0.000168185
0.000173029
0.000175177
0.000175636
0.000174756
0.000172854
0.000170115
0.000166553
0.000162033
0.000156609
0.000150454
0.000143569
0.000135587
0.000121233
0.000104247
8.94222e-05
7.76478e-05
7.09531e-05
7.18056e-05
7.69847e-05
9.13682e-05
0.000114196
0.000137987
0.00015579
0.000165778
0.000175257
0.000186901
0.000196679
0.000203797
0.00021708
0.000237742
0.000264361
0.000298605
0.000338988
0.000386267
0.000439041
0.000496725
0.0005577
0.00062091
0.000685692
0.000751366
0.000817526
0.000883767
0.00094978
0.00101493
0.00107926
0.0011433
0.0012061
0.00126788
0.00132848
0.00138793
0.0014462
0.00150335
0.00155938
0.00161434
0.0016683
0.0017213
0.00177341
0.00182469
0.00187518
0.00192493
0.001974
0.00202241
0.00207018
0.00211734
0.00216387
0.00220979
0.00225508
0.00229974
0.00234376
0.00238711
0.00242979
0.00247178
0.00251308
0.00255369
0.00259359
0.00263278
0.00267126
0.00270903
0.00274609
0.00278244
0.00281808
0.00285301
0.00288724
0.00292075
0.00295355
0.00298565
0.00301704
0.00304771
0.00307765
0.00310687
0.00313538
0.00316318
0.00319029
0.00321668
0.00324235
0.00326729
0.0032915
0.00331497
0.0033377
0.00335967
0.00338088
0.00340132
0.00342099
0.00343989
0.00345802
0.00347538
0.00349196
0.00350777
0.00352281
0.00353707
0.00355057
0.00356329
0.00357524
0.00358643
0.00359685
0.0036065
0.00361539
0.00362352
0.00363093
0.00363765
0.0036435
0.00364862
0.00365301
0.00365655
0.00365955
0.0036619
0.0036635
0.00366438
0.00366458
0.00366411
0.00366298
0.00366123
0.00365886
0.00365591
0.0036524
0.00364836
0.00364379
0.00363874
0.00363322
0.00362727
0.00362089
0.00361411
0.00360696
0.00359944
0.00359158
0.0035834
0.00357491
0.00356614
0.00355713
0.00354791
0.00353851
0.00352896
0.00351927
0.00350946
0.00349954
0.00348952
0.00347939
0.00346916
0.00345883
0.00344842
0.00343793
0.00342734
0.00341665
0.00340582
0.00339475
0.00338333
0.00337137
0.00335826
0.0033424
0.00332024
1.66268e-08
1.29257e-06
1.51045e-05
4.86022e-05
8.73251e-05
0.000120898
0.000146747
0.000165415
0.000177102
0.00018341
0.000185809
0.000185442
0.000183245
0.000179942
0.000175963
0.00017144
0.00016635
0.000160678
0.000154398
0.000147493
0.000140022
0.000129472
0.00011587
0.000106334
0.0001017
9.6833e-05
9.5607e-05
0.000105183
0.000122615
0.000142762
0.000163189
0.000181329
0.000195659
0.000205151
0.000212684
0.000221148
0.000233435
0.000251699
0.0002758
0.000307016
0.000344564
0.000388683
0.000438472
0.000493692
0.000553082
0.000615627
0.000680131
0.00074589
0.000812452
0.000879408
0.00094645
0.00101317
0.00107919
0.001145
0.0012101
0.00127438
0.00133766
0.00139996
0.00146123
0.00152147
0.00158067
0.00163886
0.00169607
0.00175232
0.00180767
0.00186216
0.00191583
0.00196874
0.0020209
0.00207238
0.00212321
0.00217342
0.00222302
0.00227203
0.00232044
0.00236822
0.00241536
0.00246184
0.00250764
0.00255274
0.00259711
0.00264075
0.00268363
0.00272576
0.00276712
0.00280773
0.00284762
0.00288676
0.00292512
0.0029627
0.0029995
0.00303553
0.0030708
0.00310531
0.00313906
0.00317206
0.00320431
0.00323581
0.00326658
0.00329663
0.00332594
0.00335453
0.00338237
0.00340949
0.00343585
0.00346147
0.00348633
0.00351043
0.00353376
0.00355633
0.00357811
0.00359911
0.00361933
0.00363876
0.00365741
0.00367527
0.00369235
0.00370864
0.00372416
0.00373889
0.00375285
0.00376604
0.00377845
0.0037901
0.00380097
0.00381108
0.00382042
0.003829
0.00383689
0.00384402
0.00385034
0.00385593
0.00386077
0.00386481
0.0038683
0.00387108
0.00387312
0.00387446
0.00387511
0.0038751
0.00387444
0.00387316
0.00387128
0.00386882
0.00386581
0.00386228
0.00385824
0.00385372
0.00384875
0.00384334
0.00383753
0.00383132
0.00382474
0.0038178
0.00381052
0.00380291
0.003795
0.0037868
0.00377835
0.00376968
0.00376082
0.00375178
0.00374259
0.00373326
0.0037238
0.0037142
0.00370447
0.00369462
0.00368465
0.00367457
0.0036644
0.00365413
0.00364375
0.00363325
0.00362256
0.0036116
0.00360017
0.00358782
0.00357329
0.0035544
3.70368e-08
2.97307e-06
2.74198e-05
7.12616e-05
0.000114809
0.000148851
0.00017194
0.000185851
0.000193051
0.000194889
0.000193205
0.000189352
0.000184255
0.000178474
0.000172354
0.000165667
0.000158842
0.000151262
0.000143572
0.000135631
0.000127216
0.000118806
0.00011186
0.000108581
0.000111111
0.000119812
0.000133683
0.000149942
0.000167562
0.000184803
0.000200285
0.000212538
0.000222715
0.00023373
0.00024618
0.000262935
0.000284559
0.000312516
0.000346602
0.000386896
0.000432783
0.000483972
0.000539742
0.000599432
0.00066197
0.000726436
0.000792057
0.000858363
0.000925019
0.000991752
0.00105799
0.00112392
0.0011897
0.00125474
0.00131902
0.00138246
0.00144499
0.0015066
0.00156727
0.001627
0.00168579
0.00174366
0.00180065
0.00185679
0.00191213
0.00196672
0.0020206
0.0020738
0.0021263
0.0021782
0.00222953
0.00228033
0.00233059
0.00238035
0.00242963
0.00247847
0.00252684
0.00257455
0.00262154
0.00266778
0.00271324
0.00275789
0.00280172
0.00284471
0.00288686
0.00292817
0.0029686
0.0030082
0.003047
0.00308502
0.00312225
0.00315872
0.00319441
0.00322935
0.00326353
0.00329696
0.00332965
0.0033616
0.00339281
0.00342329
0.00345303
0.00348202
0.00351028
0.00353778
0.00356453
0.00359053
0.00361577
0.00364025
0.00366396
0.00368689
0.00370905
0.00373042
0.00375101
0.00377081
0.00378983
0.00380807
0.00382552
0.0038422
0.0038581
0.00387323
0.00388759
0.00390119
0.00391402
0.0039261
0.00393741
0.00394796
0.00395776
0.00396682
0.0039752
0.00398277
0.0039896
0.00399571
0.00400107
0.0040057
0.00400972
0.00401302
0.00401561
0.0040175
0.00401871
0.00401927
0.00401919
0.0040185
0.00401723
0.00401538
0.004013
0.00401011
0.00400672
0.00400287
0.00399858
0.00399387
0.00398876
0.00398328
0.00397743
0.00397123
0.00396469
0.00395783
0.00395066
0.00394321
0.00393551
0.00392758
0.00391944
0.00391112
0.00390264
0.00389399
0.00388519
0.00387623
0.00386712
0.00385787
0.00384848
0.00383897
0.00382935
0.00381963
0.00380981
0.00379987
0.00378979
0.0037795
0.0037689
0.00375761
0.00374459
0.00372902
7.0678e-08
6.1029e-06
4.07777e-05
9.01986e-05
0.00013523
0.000168854
0.000190116
0.000200588
0.000203565
0.000201614
0.000196609
0.00018984
0.000182198
0.000173836
0.000165636
0.000157231
0.000149231
0.000142078
0.000136162
0.000131337
0.000128136
0.000127605
0.000130525
0.000137073
0.000147095
0.000159884
0.000174408
0.000189487
0.000204211
0.000217295
0.000228671
0.000241223
0.000255333
0.000271649
0.000291532
0.000316642
0.000347232
0.000383542
0.00042518
0.000471823
0.000522968
0.000578177
0.000636816
0.000698173
0.000761413
0.00082583
0.000890894
0.000956251
0.00102151
0.00108631
0.00115118
0.00121552
0.00127925
0.00134223
0.00140439
0.00146568
0.00152609
0.00158562
0.00164428
0.00170209
0.00175906
0.00181517
0.00187046
0.00192503
0.00197894
0.00203224
0.002085
0.00213734
0.00218953
0.0022413
0.00229258
0.0023434
0.00239375
0.00244363
0.00249305
0.00254194
0.00259025
0.00263797
0.00268501
0.00273136
0.00277698
0.00282182
0.00286586
0.00290906
0.00295143
0.00299296
0.00303368
0.0030736
0.00311273
0.00315106
0.00318862
0.00322539
0.00326139
0.00329664
0.00333113
0.00336486
0.00339785
0.00343009
0.00346159
0.00349236
0.00352238
0.00355167
0.00358021
0.00360801
0.00363507
0.00366137
0.00368693
0.00371173
0.00373577
0.00375905
0.00378156
0.0038033
0.00382426
0.00384444
0.00386385
0.00388248
0.00390034
0.00391743
0.00393376
0.00394934
0.00396416
0.00397823
0.00399156
0.00400413
0.00401596
0.00402705
0.00403739
0.00404703
0.00405594
0.0040641
0.00407154
0.00407827
0.00408427
0.00408959
0.00409425
0.0040982
0.00410144
0.004104
0.00410589
0.00410713
0.00410775
0.00410776
0.0041072
0.00410608
0.00410442
0.00410227
0.00409964
0.00409655
0.00409304
0.00408912
0.00408482
0.00408015
0.00407513
0.00406977
0.00406408
0.00405806
0.00405174
0.00404514
0.00403829
0.0040312
0.00402391
0.00401643
0.00400877
0.00400094
0.00399294
0.00398477
0.00397642
0.00396791
0.00395926
0.00395048
0.00394157
0.00393256
0.00392346
0.00391425
0.00390492
0.00389546
0.00388578
0.00387562
0.00386405
0.00385166
1.13795e-07
1.06327e-05
5.69174e-05
0.000113512
0.000159041
0.000189385
0.000206068
0.000212504
0.000211966
0.000207039
0.00019962
0.000190808
0.000181728
0.000172977
0.000165087
0.00015826
0.000152617
0.000149063
0.000147308
0.0001476
0.000150248
0.000155417
0.000163019
0.000172742
0.000184146
0.000196719
0.000209709
0.00022215
0.000233897
0.000246746
0.000261806
0.00027858
0.000297623
0.000320638
0.000348187
0.000380741
0.00041816
0.000460212
0.000506492
0.000556632