/*--------------------------------*- C++ -*----------------------------------*\
  =========                 |
  \\      /  F ield         | OpenFOAM: The Open Source CFD Toolbox
   \\    /   O peration     | Website:  https://openfoam.org
    \\  /    A nd           | Version:  13
     \\/     M anipulation  |
\*---------------------------------------------------------------------------*/
FoamFile
{
    format      ascii;
    class       volScalarField;
    location    "900";
    object      omega;
}
// * * * * * * * * * * * * * * * * * * * * * * * * * * * * * * * * * * * * * //

dimensions      [0 0 -1 0 0 0 0];

internalField   nonuniform List<scalar> 
12225
(
31477.7
41879.3
39593
40387
31477.7
47306.6
41953.9
39512.7
31477.7
31477.7
31477.7
31477.7
31477.7
31477.7
31477.7
31477.7
31477.7
31477.7
1331.71
4327.38
8293.51
11094.9
12262.5
18388.1
18819.3
18301.5
19257.4
16687.1
16903.3
16800
19569.2
17340.3
17402.4
17445.8
17473.5
17496.6
0.377627
1427.65
3519.86
4816.47
5681.2
6437.15
6461.62
7197.4
8931.19
7788.76
7782.71
7778.99
7851.42
7954.69
8039.54
8161.75
8467.74
8843.19
139.975
205.938
2609.04
1338.44
3770.03
3122.48
3583.09
3784.49
5336.01
7725.14
6005.6
6967.4
7382.17
7385.59
7052.46
6750.53
6337.27
6133.53
344.132
280.791
512.35
849.638
747.812
1131.54
2936.43
4765.72
3695.99
4459.25
4781.79
4578.71
4312.71
3947.49
3750.69
3558.32
3407.94
3422.52
427.448
476.899
746.99
734.607
824.668
1014.15
1788.51
1970.49
2748.93
2397.56
2867.8
3043.96
3021.2
2731.47
2579.34
2434.62
2289.67
2244.64
466.517
372.431
521.029
865.273
1122.56
1303.25
1421.97
1519.79
1451.19
1490.4
1548.04
1661.7
1671.72
1658.53
1586.81
1524.8
1465.94
1458.27
256.566
732.691
581.529
662.199
735.703
942.19
928.819
994.766
1100.06
1060.98
1084.16
1081.25
1077.41
1065.8
1053.26
1022.47
1001.25
1001.4
408.167
423.637
507.114
585.821
631.147
677.394
706.472
718.344
723.405
732.681
722.278
740.697
739.725
719.947
729.751
719.727
716.484
718.09
433.872
433.434
448.085
477.244
498.339
515.484
531.115
540.429
548.129
552.965
557.118
551.431
560.801
555.622
552.106
552.682
553.291
558.343
439.899
436.288
434.661
441.892
446.608
452.609
460.012
463.696
466.169
472.005
468.368
473.714
470.51
470.175
470.615
472.395
473.248
476.012
439.579
436.855
435.079
434.782
434.189
434.785
435.535
436.484
437.201
438.115
436.738
438.78
437.795
437.228
437.241
437.907
438.359
439.239
439.063
436.751
434.808
433.126
431.375
429.904
428.479
427.423
426.343
425.57
424.657
424.056
423.388
422.915
422.418
422.127
421.832
421.8
439.007
436.76
434.678
432.738
430.844
429.07
427.348
425.78
424.263
422.909
421.587
420.433
419.294
418.318
417.313
416.483
415.562
414.857
439.001
436.773
434.658
432.665
430.757
428.953
427.223
425.592
424.026
422.558
421.146
419.828
418.558
417.375
416.228
415.159
414.117
413.147
439
436.774
434.656
432.651
430.741
428.931
427.203
425.565
424
422.516
421.097
419.75
418.462
417.238
416.067
414.953
413.886
412.87
439.001
436.772
434.655
432.645
430.735
428.92
427.193
425.551
423.987
422.497
421.078
419.725
418.435
417.204
416.03
414.909
413.838
412.816
439
436.768
434.65
432.637
430.726
428.908
427.18
425.534
423.968
422.476
421.055
419.7
418.409
417.176
416
414.877
413.805
412.78
439
436.77
434.653
432.641
430.73
428.912
427.184
425.538
423.972
422.48
421.058
419.703
418.411
417.178
416.002
414.879
413.808
412.784
439.001
436.771
434.656
432.643
430.735
428.916
427.191
425.544
423.98
422.484
421.066
419.709
418.425
417.198
416.037
414.926
413.874
412.864
438.992
436.782
434.651
432.653
430.733
428.929
427.197
425.554
423.98
422.471
421.055
419.718
418.506
417.348
416.337
415.355
414.482
413.656
438.958
436.825
434.623
432.682
430.734
428.932
427.227
425.497
424.044
422.247
420.737
420.222
418.015
417.62
418.107
417.15
417.952
419.067
438.904
436.899
434.56
432.766
430.776
428.804
427.351
425.643
423.145
423.562
424.059
426.201
429.603
433.792
439.191
444.924
451.033
457.104
438.854
436.949
434.529
433.282
430.683
429.43
427.362
427.06
429.438
435.763
441.487
454.218
466.815
481.979
501.007
521.509
541.846
563.165
438.513
437.883
435.936
436.538
435.335
435.438
438.241
440.337
456.351
468.925
485.512
514.06
523.918
539.276
575.58
606.553
641.845
683.491
440.509
450.977
452.638
462.244
463.381
472.366
493.331
508.554
538.484
561.628
603.86
638.841
659.694
678.552
697.577
736.271
830.621
935.734
453.825
525.99
542.697
604.48
629.834
684.423
757.94
816.487
905.141
977.583
1054.45
1130.28
1200.74
1263.71
1337.85
1387.28
1422.7
1543.76
504.944
894.277
1073.46
1308.32
1586.1
1834.89
2107.18
2345.85
2613.14
2878.22
3154.75
3403.75
3608.85
3790.93
3959.27
4101.21
4255.73
4380.27
294.329
3602.17
5361.13
7016.51
8127.21
8874.64
9330.25
9653.19
9822.63
9983.36
9953.61
9999.15
10049.7
10144.7
10089.9
10109
10188.3
10296.1
18117.5
23210.9
25260.3
26293.2
26763.8
26754.3
26629.4
26403.1
26085.4
25755.4
25426.1
25106.9
24800.4
24514.4
24247
23997.4
23767.1
23558.9
11463.2
2514.24
2516.41
2518.61
2520.83
2523.07
2525.32
2527.6
2529.9
2532.22
2534.57
2536.93
2539.31
2541.72
2544.15
2546.6
2549.08
2551.57
2554.09
2556.64
2559.2
2561.79
2564.41
2567.05
2569.71
2572.4
2575.12
2577.86
2580.62
2583.41
2586.23
2589.08
2591.95
2594.85
2597.77
2600.73
2603.71
2606.72
2609.76
2612.82
2615.92
2619.05
2622.2
2625.39
2628.61
2631.86
2635.14
2638.45
2641.79
2645.17
2648.58
2652.02
2655.5
2659.01
2662.55
2666.13
2669.74
2673.39
2677.08
2680.8
2684.56
3299.06
3463.59
2696.06
3397.38
3429.58
3529.58
3608
3682.69
3760.01
3829.66
3901.08
3968.09
4034.92
4099.32
4162.81
4224.66
4285.47
4344.96
4403.44
4460.75
4517.08
4572.36
4626.67
4679.99
4732.34
4783.75
4834.19
4883.67
4932.16
4979.63
5026.07
5071.45
5115.72
5158.84
5200.75
5241.42
5280.78
5318.86
5355.68
5391.4
5426.36
5460.64
5493.73
5525.92
5557.11
5587.33
5616.55
5644.77
5671.99
5698.18
5723.36
5747.5
5770.6
5792.66
5813.68
5833.64
5852.56
5870.42
5887.23
5902.99
5917.69
5931.34
5943.96
5955.53
5966.09
5975.66
5984.25
5991.85
5998.5
6004.91
6007.94
6012.44
6013.69
6015.78
6017.02
6017.44
6017.05
6015.22
6012.13
6008.26
6003.47
5997.94
5991.68
5984.73
5977.14
5968.96
5960.22
5950.98
5941.28
5931.18
5920.7
5909.91
5898.84
5887.54
5876.06
5864.48
5852.9
5841.43
5830.29
5819.42
5808.88
5798.65
5788.86
5779.4
5770.41
5761.74
5753.56
5745.71
5738.38
5731.38
5724.82
5718.4
5712.1
5705.33
5697.49
5687.65
5672.78
5647.88
5544.06
11463.2
1991.7
992.352
805.25
687.94
617.4
622.913
620.647
608.277
587.274
563.648
540.194
518.929
501.424
489.471
481.082
480.249
482.228
506.342
550.697
631.854
730.782
840.243
949.613
1051.4
1129.54
1185.1
1183.23
1155.45
1083.79
966.004
827.591
676.437
583.109
515.724
467.864
446.265
449.063
460.252
486.044
518.879
548.305
601.329
694.98
819.248
1031.7
1352.35
1650.76
1851.57
1982.04
2048.5
2065.48
2052.01
2003.25
1946.3
1888.34
1845.85
1796.01
1736.63
1704.66
1677.78
1686.23
1661.85
1629.53
1660.09
1644.96
1646.32
1646.21
1648.62
1652.34
1656.83
1662.59
1668.71
1675.59
1682.74
1690.27
1697.99
1705.88
1713.86
1721.91
1729.98
1738.04
1746.06
1754.02
1761.9
1769.69
1777.35
1784.88
1792.25
1799.44
1806.46
1813.27
1819.87
1826.26
1832.43
1838.4
1844.23
1849.99
1855.81
1861.93
1868.66
1876.5
1884.99
1892.86
1900.72
1908.25
1915.6
1922.7
1929.58
1936.23
1942.65
1948.84
1954.8
1960.52
1966.01
1971.27
1976.3
1981.1
1985.66
1990
1994.1
1997.98
2001.64
2005.08
2008.3
2011.31
2014.12
2016.72
2019.12
2021.32
2023.32
2025.03
2026.7
2028.06
2029.45
2030.63
2031.52
2031.94
2031.66
2030.9
2029.96
2028.85
2027.6
2026.2
2024.66
2023
2021.22
2019.33
2017.34
2015.26
2013.09
2010.86
2008.56
2006.22
2003.84
2001.45
1999.04
1996.65
1994.29
1991.99
1989.74
1987.54
1985.39
1983.3
1981.27
1979.31
1977.41
1975.59
1973.82
1972.15
1970.54
1969.03
1967.6
1966.29
1965.12
1964.17
1963.46
1963.3
1962.68
1973.71
11463.2
2001.73
804.553
628.768
666.053
670.256
644.021
590.769
532.076
476.732
427.483
386.306
353.827
328.282
308.556
293.388
282.652
274.704
271.936
273.894
283.36
300.21
330.823
372.372
426.449
485.198
549.213
598.687
637.645
641.591
628.299
593.09
532.779
465.082
404.369
369.448
371.527
385.009
410.906
453.651
534.057
651.692
813.34
1005.19
1173.31
1315.99
1445.59
1526.26
1549.63
1545.49
1498.11
1444.61
1383.19
1324.15
1271.16
1228.39
1194.47
1163.36
1138.42
1121.4
1110.75
1103.22
1098.46
1089.88
1091.09
1089.68
1089.9
1091.34
1093.43
1096.1
1099.19
1102.68
1106.39
1110.36
1114.46
1118.71
1123.04
1127.43
1131.87
1136.34
1140.81
1145.28
1149.73
1154.16
1158.56
1162.91
1167.21
1171.45
1175.62
1179.73
1183.77
1187.74
1191.66
1195.51
1199.33
1203.12
1206.92
1210.77
1214.7
1218.76
1222.98
1227.32
1231.57
1235.65
1239.64
1243.49
1247.22
1250.83
1254.3
1257.64
1260.86
1263.94
1266.9
1269.72
1272.41
1274.96
1277.38
1279.67
1281.82
1283.84
1285.73
1287.48
1289.1
1290.59
1291.95
1293.18
1294.29
1295.27
1296.13
1296.85
1297.47
1297.94
1298.34
1298.59
1298.77
1298.8
1298.72
1298.35
1297.82
1297.14
1296.38
1295.53
1294.61
1293.61
1292.54
1291.4
1290.2
1288.95
1287.63
1286.27
1284.86
1283.41
1281.92
1280.4
1278.87
1277.33
1275.78
1274.23
1272.69
1271.15
1269.62
1268.09
1266.56
1265.04
1263.53
1262.02
1260.52
1259.02
1257.54
1256.06
1254.61
1253.18
1251.81
1250.53
1249.41
1248.54
1248.08
1248.46
1250.12
1260.8
11463.2
2032.19
995.272
955.392
887.909
763.088
649.094
544.377
461.041
398.766
351.836
314.639
285.792
263.688
246.806
234.017
224.507
217.614
212.998
210.973
211.821
214.473
222.033
234.979
255.218
282.056
316.282
351.296
385.472
410.167
423.763
420.683
406.326
380.691
391.562
447.107
524.955
581.349
637.78
712.651
821.268
957.093
1069.07
1144.86
1210.48
1259.74
1277.59
1236.72
1197.63
1150.22
1097.97
1052.96
1011.47
977.041
948.545
926.663
909.544
895.806
885.741
878.673
875.12
871.042
869.943
868.847
869.388
870.38
872.026
874.154
876.615
879.362
882.328
885.479
888.765
892.17
895.659
899.22
902.833
906.485
910.165
913.862
917.568
921.274
924.974
928.661
932.33
935.975
939.591
943.175
946.724
950.236
953.715
957.161
960.576
963.967
967.339
970.7
974.059
977.423
980.796
984.176
987.548
990.871
994.101
997.229
1000.27
1003.21
1006.05
1008.78
1011.42
1013.95
1016.38
1018.71
1020.92
1023.03
1025.03
1026.92
1028.7
1030.37
1031.93
1033.37
1034.7
1035.92
1037.03
1038.02
1038.91
1039.68
1040.35
1040.9
1041.34
1041.67
1041.9
1042.02
1042.05
1041.97
1041.79
1041.5
1041.1
1040.54
1039.88
1039.12
1038.28
1037.37
1036.4
1035.36
1034.25
1033.09
1031.87
1030.6
1029.28
1027.91
1026.5
1025.05
1023.57
1022.05
1020.52
1018.96
1017.39
1015.8
1014.2
1012.59
1010.97
1009.34
1007.7
1006.04
1004.38
1002.71
1001.03
999.348
997.654
995.953
994.253
992.57
990.922
989.347
987.896
986.661
985.794
985.711
986.873
993.22
11463.2
2285.09
1438.78
1168
930.105
722.182
558.028
447.003
371.203
318.331
280.789
254.652
235.516
220.824
209.114
199.777
192.524
187.175
183.535
181.515
181.464
182.598
185.781
191.781
201.552
215.864
235.716
258.866
283.277
305.312
320.093
332.833
370.522
436.294
536.161
610.555
674.343
744.014
820.296
892.571
956.608
1011.79
1058.65
1085.58
1092.49
1059.13
1014.18
976.151
935.975
898.631
865.514
838.368
815.253
796.801
782.176
771.17
762.939
756.941
752.943
750.576
749.953
749.478
750.128
751.359
753.242
755.466
758.027
760.842
763.854
767.027
770.33
773.74
777.235
780.801
784.425
788.094
791.8
795.533
799.286
803.052
806.823
810.595
814.362
818.119
821.86
825.583
829.282
832.954
836.598
840.211
843.794
847.348
850.872
854.367
857.835
861.275
864.688
868.07
871.416
874.714
877.953
881.117
884.194
887.182
890.081
892.887
895.599
898.215
900.733
903.151
905.468
907.683
909.793
911.796
913.692
915.479
917.156
918.722
920.176
921.517
922.746
923.861
924.864
925.753
926.529
927.191
927.739
928.173
928.493
928.697
928.79
928.783
928.666
928.439
928.105
927.662
927.107
926.432
925.654
924.783
923.828
922.794
921.683
920.498
919.243
917.921
916.539
915.098
913.599
912.047
910.444
908.795
907.105
905.379
903.622
901.836
900.025
898.19
896.334
894.459
892.565
890.652
888.723
886.778
884.819
882.847
880.863
878.866
876.858
874.847
872.836
870.833
868.859
866.941
865.128
863.493
862.158
861.455
861.781
864.922
11463.2
2875.72
1710.26
1196.69
829.477
585.994
443.112
353.876
297.945
261.59
236.559
218.301
204.456
193.762
185.267
178.455
173.107
169.135
166.445
165.092
165.211
166.323
169.038
173.68
180.587
190.598
205.018
223.737
246.959
277.643
323.364
385.087
484.472
584.262
658.455
722.415
781.987
832.091
871.836
906.564
940.332
956.155
957.108
927.151
896.626
863.521
830.112
800.591
772.983
749.711
730.169
714.327
701.446
691.449
683.927
678.596
675.031
673.126
672.474
672.468
673.593
675.158
677.348
679.938
682.884
686.071
689.465
693.018
696.7
700.487
704.36
708.306
712.313
716.371
720.471
724.605
728.767
732.95
737.147
741.351
745.558
749.761
753.955
758.135
762.297
766.437
770.55
774.633
778.682
782.695
786.672
790.61
794.509
798.367
802.183
805.954
809.676
813.345
816.953
820.489
823.949
827.326
830.613
833.809
836.91
839.915
842.819
845.622
848.32
850.911
853.395
855.769
858.03
860.176
862.206
864.118
865.91
867.581
869.131
870.557
871.86
873.04
874.095
875.025
875.831
876.512
877.066
877.495
877.797
877.963
878.009
877.948
877.757
877.444
877.012
876.46
875.788
874.995
874.09
873.081
871.974
870.773
869.481
868.101
866.637
865.093
863.477
861.79
860.034
858.212
856.33
854.392
852.402
850.367
848.293
846.182
844.037
841.86
839.656
837.426
835.172
832.897
830.602
828.289
825.962
823.621
821.267
818.899
816.519
814.132
811.743
809.362
807.003
804.694
802.472
800.397
798.563
797.207
796.611
797.628
11463.2
3392.76
1762.49
1035
650.717
456.581
355.776
299.687
264.315
239.28
220.379
205.574
193.773
184.084
176.077
169.548
164.408
160.614
158.248
157.38
157.91
159.861
163.768
169.823
178.851
191.654
209.029
234.671
274.457
335.295
426.055
525.002
605.405
669.625
724.475
767.677
800.558
827.67
849.097
857.851
853.411
830.091
808.146
781.527
756.445
731.422
708.383
688.351
670.953
656.626
644.92
635.637
628.467
623.246
619.721
617.906
617.268
617.417
618.602
620.467
622.991
625.943
629.304
632.966
636.873
640.965
645.206
649.567
654.025
658.563
663.168
667.831
672.543
677.297
682.086
686.904
691.743
696.598
701.46
706.325
711.185
716.034
720.867
725.68
730.466
735.222
739.944
744.625
749.262
753.852
758.392
762.881
767.317
771.697
776.018
780.277
784.469
788.592
792.642
796.615
800.501
804.293
807.987
811.579
815.066
818.445
821.712
824.864
827.897
830.808
833.591
836.246
838.771
841.167
843.431
845.561
847.555
849.413
851.132
852.714
854.156
855.458
856.621
857.643
858.524
859.265
859.864
860.321
860.634
860.788
860.82
860.719
860.474
860.091
859.573
858.92
858.135
857.217
856.174
855.012
853.735
852.349
850.855
849.259
847.564
845.772
843.882
841.895
839.825
837.676
835.455
833.166
830.815
828.409
825.954
823.454
820.912
818.333
815.72
813.077
810.407
807.714
805
802.268
799.522
796.763
793.991
791.207
788.412
785.611
782.808
780.014
777.241
774.512
771.857
769.323
766.982
764.995
763.493
762.932
11463.2
3551.4
1566.03
820.059
514.728
378.747
309.528
268.963
242.975
224.827
210.901
199.348
189.224
180.463
173.021
166.935
162.331
159.405
158.139
158.371
160.117
163.819
170.147
179.672
194.952
218.659
253.213
307.282
385.195
469.945
542.235
602.705
655.118
698.091
731.548
758.778
775.178
780.566
772.861
755.62
738.194
717.62
698.417
678.634
660.086
642.579
627.142
613.985
602.972
594.077
587.078
581.815
578.114
576.03
575.239
575.246
576.344
578.238
580.86
584.062
587.761
591.841
596.245
600.903
605.764
610.787
615.94
621.199
626.544
631.962
637.441
642.972
648.546
654.158
659.8
665.466
671.149
676.842
682.535
688.222
693.895
699.548
705.174
710.768
716.324
721.837
727.304
732.718
738.073
743.365
748.591
753.749
758.837
763.851
768.787
773.642
778.414
783.098
787.693
792.196
796.592
800.877
805.046
809.096
813.023
816.824
820.495
824.033
827.434
830.695
833.814
836.788
839.615
842.294
844.822
847.197
849.418
851.483
853.391
855.142
856.734
858.167
859.441
860.556
861.511
862.306
862.94
863.413
863.718
863.847
863.843
863.676
863.348
862.864
862.226
861.436
860.495
859.406
858.174
856.805
855.303
853.672
851.918
850.045
848.056
845.957
843.754
841.449
839.049
836.559
833.984
831.331
828.606
825.816
822.969
820.069
817.121
814.13
811.101
808.039
804.947
801.831
798.692
795.536
792.366
789.184
785.991
782.787
779.575
776.358
773.143
769.937
766.754
763.611
760.534
757.557
754.715
752.12
749.829
747.963
11463.2
3410.89
1293.49
664.99
446.339
348.767
295.524
261.8
239.633
223.154
210.206
199.553
190.545
182.867
176.485
171.574
168.379
167.058
167.767
170.647
175.949
185.033
199.379
220.328
254.262
303.037
364.664
429.734
488.84
541.927
588.231
628.16
661.614
690.243
708.019
713.602
708.386
695.425
681.204
665.209
650.013
634.767
620.312
606.115
592.886
580.89
570.572
561.973
555.002
549.59
545.627
543.086
541.92
541.692
542.466
544.15
546.67
549.892
553.726
558.077
562.863
568.008
573.449
579.132
585.011
591.048
597.216
603.492
609.859
616.299
622.8
629.35
635.939
642.559
649.2
655.861
662.534
669.205
675.867
682.51
689.126
695.708
702.249
708.743
715.183
721.559
727.859
734.086
740.239
746.316
752.312
758.224
764.05
769.785
775.425
780.967
786.405
791.735
796.951
802.045
807.014
811.851
816.554
821.116
825.536
829.809
833.932
837.901
841.712
845.361
848.846
852.163
855.312
858.289
861.094
863.723
866.177
868.452
870.548
872.465
874.201
875.756
877.13
878.323
879.335
880.165
880.813
881.279
881.547
881.635
881.557
881.295
880.852
880.233
879.439
878.472
877.335
876.032
874.566
872.945
871.171
869.25
867.188
864.988
862.657
860.198
857.62
854.926
852.123
849.217
846.215
843.123
839.947
836.698
833.382
830.007
826.577
823.099
819.579
816.024
812.439
808.828
805.195
801.544
797.881
794.207
790.524
786.834
783.138
779.442
775.751
772.073
768.418
764.802
761.246
757.776
754.43
751.285
748.338
745.449
11463.2
3009.5
1046.3
563.919
397.768
322.598
282.194
257.365
239.846
226.965
216.654
207.966
200.585
194.573
190.133
187.973
188.03
191.283
197.492
207.186
221.544
242.804
272.344
310.97
355.393
402.29
448.651
491.964
531.072
566.055
596.406
623.405
643.594
651.567
651.56
643.531
632.825
620.35
608.248
596.438
585.283
574.381
563.864
553.76
544.491
536.331
529.472
523.935
519.689
516.684
515.031
514.464
514.777
516.103
518.326
521.364
525.137
529.558
534.547
540.029
545.934
552.201
558.77
565.59
572.615
579.809
587.141
594.589
602.148
609.783
617.476
625.214
632.983
640.767
648.545
656.289
663.994
671.689
679.372
687.031
694.654
702.234
709.763
717.236
724.646
731.986
739.257
746.444
753.533
760.514
767.385
774.143
780.785
787.309
793.709
799.981
806.121
812.125
817.986
823.703
829.27
834.683
839.936
845.026
849.948
854.7
859.276
863.674
867.888
871.916
875.754
879.399
882.849
886.102
889.158
892.014
894.669
897.121
899.37
901.416
903.257
904.893
906.324
907.55
908.572
909.39
910.004
910.409
910.594
910.59
910.384
909.974
909.363
908.553
907.547
906.349
904.96
903.386
901.631
899.7
897.598
895.331
892.904
890.322
887.591
884.718
881.709
878.57
875.309
871.933
868.448
864.862
861.183
857.42
853.582
849.677
845.713
841.696
837.636
833.539
829.411
825.258
821.083
816.891
812.687
808.475
804.257
800.034
795.812
791.593
787.384
783.191
779.025
774.897
770.824
766.827
762.929
759.196
755.594
751.751
11463.2
2545.45
903.034
524.739
385.271
319.16
283.43
262.539
248.702
238.554
230.584
224.254
219.524
217.168
216.995
220.165
227.03
236.944
249.579
266.95
289.905
317.992
349.993
384.187
418.654
452.229
483.996
513.173
539.203
563.084
583.847
594.764
597.526
594.947
588.875
580.162
571.002
561.948
553.432
545.26
537.347
529.562
522.017
514.906
508.523
503.076
498.686
495.387
493.24
492.286
492.175
493.069
494.904
497.64
501.215
505.564
510.614
516.291
522.528
529.258
536.421
543.976
551.867
560.024
568.404
576.966
585.668
594.46
603.256
612.117
621.046
630.03
639.05
648.086
657.118
666.144
675.154
684.126
693.064
701.943
710.75
719.481
728.131
736.695
745.166
753.536
761.793
769.926
777.927
785.792
793.517
801.101
808.541
815.834
822.974
829.959
836.782
843.443
849.935
856.255
862.399
868.361
874.134
879.716
885.102
890.288
895.272
900.049
904.614
908.965
913.098
917.009
920.697
924.16
927.398
930.409
933.194
935.75
938.078
940.177
942.046
943.686
945.096
946.277
947.23
947.956
948.454
948.716
948.753
948.566
948.155
947.52
946.663
945.587
944.294
942.788
941.074
939.156
937.039
934.729
932.23
929.549
926.69
923.661
920.467
917.115
913.613
909.968
906.188
902.281
898.256
894.119
889.88
885.548
881.133
876.644
872.091
867.485
862.833
858.145
853.426
848.683
843.919
839.139
834.348
829.552
824.751
819.952
815.157
810.373
805.604
800.855
796.136
791.456
786.828
782.269
777.794
773.457
769.218
764.499
11463.2
2117.56
781.897
480.344
369.898
317.702
289.987
273.508
262.814
255.421
250.252
247.288
246.41
248.052
252.914
261.145
272.305
285.906
302.835
322.977
345.737
370.282
395.674
421.088
445.864
469.18
490.751
511.182
529.772
542.32
547.4
548.243
546.533
542.051
536.305
530.023
523.882
517.975
512.284
506.677
501.112
495.622
490.365
485.554
481.414
478.109
475.727
474.482
474.142
474.726
476.269
478.745
482.118
486.354
491.427
497.295
503.852
511.033
518.775
527.01
535.655
544.592
553.788
563.283
573.05
583.051
593.246
603.603
614.125
624.742
635.407
646.092
656.78
667.436
678.018
688.509
698.895
709.161
719.291
729.3
739.196
748.983
758.662
768.233
777.69
787.022
796.213
805.249
814.12
822.82
831.347
839.7
847.878
855.877
863.691
871.317
878.75
885.989
893.029
899.867
906.497
912.915
919.113
925.087
930.833
936.349
941.63
946.675
951.479
956.037
960.348
964.407
968.214
971.768
975.066
978.111
980.903
983.442
985.728
987.758
989.535
991.057
992.327
993.343
994.108
994.624
994.889
994.903
994.67
994.19
993.466
992.499
991.293
989.848
988.167
986.257
984.123
981.77
979.203
976.427
973.447
970.27
966.901
963.348
959.616
955.713
951.647
947.427
943.062
938.559
933.929
929.181
924.322
919.363
914.314
909.186
903.992
898.743
893.451
888.122
882.765
877.385
871.985
866.571
861.148
855.72
850.293
844.872
839.463
834.072
828.701
823.356
818.043
812.771
807.55
802.393
797.312
792.352
787.484
781.94
11463.2
1964.56
765.019
478.893
373.518
326.294
302.035
288.375
280.172
275.371
273.241
272.961
275.196
280.072
287.646
297.702
309.947
324.395
340.716
358.393
377.078
396.085
414.807
432.803
450.136
467.044
482.716
494.954
501.668
504.591
505.578
504.973
502.692
499.456
495.841
492.121
488.439
484.779
481.107
477.407
473.731
470.198
466.977
464.255
462.208
461.108
460.825
461.508
463.238
465.877
469.409
473.816
479.066
485.101
491.805
499.083
507.062
515.723
525.012
534.867
545.23
556.075
567.352
578.982
590.916
603.113
615.516
628.078
640.774
653.525
666.235
678.84
691.278
703.515
715.54
727.341
738.911
750.252
761.38
772.324
783.111
793.756
804.272
814.669
824.944
835.077
845.043
854.819
864.389
873.754
882.91
891.859
900.6
909.128
917.439
925.526
933.388
941.021
948.424
955.592
962.522
969.206
975.638
981.814
987.729
993.38
998.766
1003.88
1008.73
1013.31
1017.6
1021.62
1025.35
1028.81
1031.98
1034.87
1037.49
1039.83
1041.89
1043.68
1045.18
1046.42
1047.37
1048.06
1048.47
1048.61
1048.49
1048.1
1047.44
1046.52
1045.34
1043.9
1042.21
1040.26
1038.07
1035.63
1032.96
1030.06
1026.93
1023.59
1020.02
1016.25
1012.28
1008.11
1003.76
999.221
994.512
989.64
984.615
979.446
974.143
968.717
963.176
957.533
951.79
945.967
940.08
934.141
928.16
922.145
916.103
910.039
903.959
897.867
891.767
885.664
879.567
873.484
867.421
861.383
855.372
849.391
843.446
837.544
831.693
825.905
820.19
814.584
809.086
802.753
11463.2
1872.18
744.664
476.991
380.865
337.798
316.411
304.935
298.646
295.722
294.969
296.477
300.429
306.6
314.755
324.586
335.844
348.287
361.584
375.4
389.338
402.993
416.543
430.152
442.779
452.963
460.073
464.854
468.037
469.472
469.969
469.863
468.935
467.613
466.092
464.452
462.732
460.951
459.15
457.414
455.902
454.88
454.395
454.374
455.091
456.609
458.877
461.827
465.332
469.723
475.058
481.341
488.548
496.646
505.62
515.474
526.124
537.535
549.627
562.325
575.564
589.292
603.437
617.913
632.658
647.649
662.786
677.944
693.006
707.884
722.525
736.861
750.83
764.391
777.527
790.234
802.52
814.401
825.941
837.242
848.373
859.35
870.202
880.967
891.638
902.18
912.545
922.681
932.569
942.22
951.636
960.814
969.755
978.454
986.905
995.103
1003.04
1010.73
1018.15
1025.31
1032.21
1038.83
1045.17
1051.23
1056.99
1062.47
1067.65
1072.53
1077.12
1081.41
1085.4
1089.08
1092.46
1095.54
1098.33
1100.82
1103.01
1104.91
1106.51
1107.81
1108.81
1109.52
1109.94
1110.06
1109.9
1109.46
1108.73
1107.72
1106.43
1104.87
1103.04
1100.94
1098.58
1095.97
1093.1
1089.99
1086.64
1083.06
1079.24
1075.2
1070.94
1066.46
1061.78
1056.89
1051.81
1046.55
1041.1
1035.5
1029.73
1023.82
1017.77
1011.6
1005.31
998.919
992.427
985.858
979.23
972.555
965.84
959.094
952.322
945.532
938.728
931.917
925.099
918.28
911.477
904.696
897.943
891.223
884.536
877.885
871.273
864.706
858.192
851.744
845.369
839.094
832.961
825.867
11463.2
1856.84
741.372
483.26
391.86
351.446
331.548
320.945
315.308
312.884
312.437
314.448
318.599
324.512
331.787
340.086
349.198
358.906
368.977
379.169
389.523
400.139
409.775
417.803
424.414
429.87
434.424
437.977
440.812
443.026
444.879
446.484
447.944
449.2
450.279
451.231
452.105
452.954
453.841
454.82
455.901
456.915
458.498
460.861
464.229
468.524
473.743
479.923
487.157
495.39
504.646
514.93
526.223
538.462
551.607
565.624
580.453
596.13
612.425
629.212
646.39
663.868
681.555
699.354
717.165
734.851
752.344
769.585
786.485
802.945
818.867
834.145
848.714
862.552
875.691
888.16
899.984
911.136
921.797
932.271
942.716
953.027
963.262
973.545
983.845
994.071
1004.14
1014.02
1023.67
1033.07
1042.21
1051.09
1059.7
1068.04
1076.11
1083.89
1091.39
1098.61
1105.54
1112.2
1118.56
1124.64
1130.42
1135.89
1141.05
1145.89
1150.43
1154.65
1158.56
1162.15
1165.42
1168.37
1171.01
1173.32
1175.33
1177.04
1178.44
1179.54
1180.32
1180.79
1180.95
1180.81
1180.38
1179.63
1178.59
1177.27
1175.66
1173.77
1171.61
1169.17
1166.45
1163.47
1160.23
1156.73
1152.99
1149.01
1144.79
1140.33
1135.65
1130.74
1125.61
1120.27
1114.72
1108.97
1103.03
1096.91
1090.6
1084.14
1077.52
1070.75
1063.85
1056.83
1049.7
1042.47
1035.17
1027.82
1020.41
1012.96
1005.47
997.954
990.412
982.854
975.288
967.72
960.148
952.583
945.044
937.538
930.067
922.635
915.241
907.889
900.58
893.315
886.11
878.978
871.923
864.962
858.19
850.365
11463.7
1827.79
740.195
492.032
403.146
363.845
344.688
334.075
328.084
325.404
324.78
326.371
329.808
334.637
340.453
346.982
354.093
361.67
369.614
377.459
385.051
392.102
398.887
405.385
411.485
417.267
422.781
428.021
433.027
437.741
442.158
446.179
449.573
452.789
455.967
459.183
462.51
466.03
469.835
474.027
478.744
484.27
490.719
498.366
507.312
517.261
528.241
540.273
553.381
567.503
582.629
598.803
616.055
634.107
652.809
672.033
691.631
711.401
731.334
751.355
771.379
791.321
811.107
830.667
849.932
868.831
887.309
905.312
922.779
939.629
955.763
971.01
985.306
998.704
1011.3
1023.17
1034.32
1044.81
1054.67
1064.05
1073.03
1081.71
1090.32
1099.35
1108.58
1117.75
1126.76
1135.58
1144.17
1152.48
1160.49
1168.21
1175.63
1182.75
1189.58
1196.09
1202.3
1208.22
1213.85
1219.2
1224.26
1229.03
1233.5
1237.67
1241.52
1245.05
1248.28
1251.2
1253.8
1256.09
1258.06
1259.72
1261.06
1262.07
1262.77
1263.16
1263.25
1263.07
1262.58
1261.76
1260.66
1259.27
1257.59
1255.63
1253.39
1250.87
1248.1
1245.05
1241.75
1238.19
1234.37
1230.3
1225.98
1221.41
1216.61
1211.57
1206.31
1200.83
1195.12
1189.21
1183.08
1176.76
1170.24
1163.52
1156.63
1149.56
1142.32
1134.93
1127.38
1119.71
1111.9
1103.98
1095.96
1087.84
1079.67
1071.45
1063.19
1054.88
1046.53
1038.15
1029.76
1021.35
1012.94
1004.53
996.153
987.812
979.509
971.244
963.018
954.833
946.692
938.597
930.553
922.558
914.635
906.795
899.042
891.376
883.953
875.425
11462.8
1816.62
742.688
500.042
411.957
372.991
353.846
342.853
336.435
333.453
332.613
333.746
336.671
340.94
346.305
352.384
359.033
366.051
373.288
380.885
388.652
396.358
403.994
411.613
419.217
426.855
434.558
442.354
450.254
458.094
465.943
473.844
481.989
490.366
499.043
508.105
517.644
527.765
538.574
550.18
562.709
576.309
590.934
606.505
622.853
640.141
658.422
677.641
697.699
718.484
739.906
761.957
784.215
806.594
828.967
851.208
873.182
894.762
915.873
936.463
956.491
975.943
994.811
1013.09
1030.79
1047.9
1064.42
1080.36
1095.72
1110.47
1124.59
1138.06
1150.81
1162.74
1174.04
1184.77
1194.93
1204.54
1213.52
1221.77
1229.31
1236.52
1243.76
1251.25
1258.62
1265.73
1272.52
1278.99
1285.14
1290.98
1296.51
1301.75
1306.7
1311.36
1315.74
1319.84
1323.67
1327.24
1330.57
1333.67
1336.52
1339.12
1341.47
1343.55
1345.36
1346.89
1348.15
1349.15
1349.88
1350.32
1350.48
1350.38
1349.99
1349.29
1348.33
1347.1
1345.6
1343.85
1341.84
1339.56
1337.01
1334.21
1331.16
1327.86
1324.33
1320.55
1316.55
1312.31
1307.84
1303.15
1298.23
1293.09
1287.72
1282.13
1276.33
1270.32
1264.11
1257.7
1251.09
1244.29
1237.3
1230.13
1222.78
1215.26
1207.57
1199.73
1191.73
1183.59
1175.31
1166.91
1158.39
1149.75
1141.02
1132.18
1123.27
1114.3
1105.27
1096.18
1087.05
1077.9
1068.71
1059.52
1050.32
1041.12
1031.95
1022.83
1013.75
1004.71
995.698
986.731
977.814
968.951
960.151
951.441
942.817
934.286
925.848
917.498
909.434
900.269
11461.8
1803.13
746.58
504.63
417.175
379.591
360.653
349.685
343.862
341.491
341.143
343.204
346.983
352.184
358.429
365.827
374.4
383.276
392.698
403.069
414.372
426.295
438.531
451.361
464.809
478.872
493.527
508.738
524.423
540.677
557.532
575.017
593.19
611.942
631.275
651.232
671.88
693.325
715.727
739.071
763.291
788.299
813.908
839.9
866.115
892.635
919.821
947.308
974.614
1001.49
1027.64
1052.63
1076.39
1098.96
1120.33
1140.47
1159.35
1176.99
1193.46
1208.81
1223.11
1236.47
1248.97
1260.7
1271.72
1282.13
1291.98
1301.32
1310.24
1318.72
1326.8
1334.7
1342.46
1350.05
1357.35
1364.35
1370.93
1376.95
1382.41
1387.58
1392.52
1397.76
1403.04
1407.74
1411.78
1415.31
1418.46
1421.28
1423.82
1426.1
1428.14
1429.94
1431.52
1432.87
1434.03
1435.01
1435.81
1436.45
1436.95
1437.3
1437.48
1437.47
1437.32
1436.99
1436.43
1435.69
1434.75
1433.62
1432.28
1430.73
1428.96
1426.97
1424.76
1422.33
1419.69
1416.84
1413.78