/*--------------------------------*- C++ -*----------------------------------*\
  =========                 |
  \\      /  F ield         | OpenFOAM: The Open Source CFD Toolbox
   \\    /   O peration     | Website:  https://openfoam.org
    \\  /    A nd           | Version:  13
     \\/     M anipulation  |
\*---------------------------------------------------------------------------*/
FoamFile
{
    format      ascii;
    class       volScalarField;
    location    "900";
    object      p;
}
// * * * * * * * * * * * * * * * * * * * * * * * * * * * * * * * * * * * * * //

dimensions      [0 2 -2 0 0 0 0];

internalField   nonuniform List<scalar> 
12225
(
-4.3404
-5.20279
-5.61103
-5.75752
-5.9029
-6.06728
-6.20867
-6.32327
-6.42551
-6.52251
-6.61655
-6.70059
-6.77068
-6.82858
-6.88056
-6.93218
-6.98915
-7.0698
-4.61753
-5.24152
-5.58884
-5.73526
-5.87671
-6.03498
-6.1762
-6.28836
-6.39105
-6.49472
-6.59016
-6.66999
-6.73459
-6.78943
-6.84323
-6.90206
-6.96159
-7.00369
-4.8074
-5.23255
-5.56945
-5.74322
-5.88852
-6.04101
-6.1801
-6.29501
-6.3966
-6.49588
-6.58583
-6.66145
-6.72344
-6.77794
-6.83162
-6.88639
-6.93628
-6.96968
-4.94607
-5.25044
-5.57363
-5.75748
-5.89525
-6.03771
-6.17123
-6.28283
-6.38401
-6.47979
-6.56558
-6.63894
-6.70158
-6.75815
-6.81245
-6.86486
-6.91195
-6.94734
-5.0767
-5.31048
-5.58979
-5.76936
-5.90228
-6.03874
-6.1669
-6.27626
-6.37769
-6.47082
-6.5533
-6.62521
-6.6884
-6.74577
-6.79949
-6.84976
-6.89481
-6.93103
-5.18878
-5.38145
-5.60334
-5.77695
-5.90985
-6.04089
-6.16382
-6.27156
-6.36983
-6.45875
-6.53806
-6.60865
-6.67178
-6.72906
-6.78186
-6.83032
-6.87356
-6.90949
-5.28446
-5.4057
-5.62032
-5.78937
-5.92042
-6.04436
-6.16159
-6.26634
-6.36078
-6.4468
-6.52475
-6.59488
-6.65791
-6.7148
-6.76652
-6.81337
-6.855
-6.89029
-5.37488
-5.46551
-5.64972
-5.80823
-5.93348
-6.04977
-6.16116
-6.26233
-6.35379
-6.43766
-6.51403
-6.58277
-6.64446
-6.69991
-6.74999
-6.79507
-6.83518
-6.8698
-5.45814
-5.53046
-5.6836
-5.82836
-5.94707
-6.05702
-6.16288
-6.26023
-6.34867
-6.4298
-6.50371
-6.57034
-6.63023
-6.68417
-6.73289
-6.77675
-6.81595
-6.85016
-5.53344
-5.5915
-5.71841
-5.84904
-5.9612
-6.06525
-6.16543
-6.25851
-6.34356
-6.42162
-6.49289
-6.55742
-6.61568
-6.6683
-6.71589
-6.75877
-6.79717
-6.831
-5.6009
-5.64783
-5.75305
-5.86975
-5.97486
-6.07292
-6.1674
-6.25607
-6.33768
-6.41272
-6.48147
-6.54405
-6.60077
-6.65215
-6.69867
-6.74062
-6.7783
-6.81158
-5.65672
-5.69583
-5.78465
-5.8889
-5.9869
-6.07933
-6.16865
-6.25322
-6.33165
-6.40399
-6.47053
-6.53135
-6.58672
-6.63696
-6.68254
-6.72368
-6.76072
-6.79364
-5.7071
-5.74024
-5.81542
-5.90801
-5.99877
-6.08558
-6.16985
-6.25032
-6.32552
-6.39522
-6.45957
-6.5187
-6.57268
-6.62185
-6.66648
-6.70691
-6.74339
-6.77597
-5.75868
-5.78641
-5.84901
-5.92972
-6.01233
-6.09285
-6.17151
-6.2473
-6.31881
-6.3855
-6.44739
-6.50451
-6.55695
-6.60483
-6.64847
-6.68809
-6.72401
-6.75624
-5.80942
-5.83232
-5.88397
-5.95327
-6.02725
-6.10095
-6.17365
-6.24435
-6.31175
-6.37509
-6.43426
-6.48915
-6.53982
-6.58629
-6.62883
-6.6676
-6.70293
-6.73483
-5.85632
-5.87516
-5.91781
-5.97691
-6.04236
-6.10917
-6.17583
-6.24132
-6.30438
-6.36424
-6.42046
-6.47302
-6.52172
-6.56673
-6.60805
-6.64599
-6.68065
-6.71225
-5.89525
-5.91095
-5.94673
-5.99753
-6.05545
-6.11586
-6.17694
-6.23751
-6.29642
-6.35281
-6.4062
-6.45634
-6.50316
-6.54661
-6.58681
-6.62385
-6.65796
-6.6892
-5.92013
-5.93378
-5.96513
-6.01032
-6.06277
-6.11828
-6.17496
-6.23159
-6.28711
-6.34059
-6.39154
-6.43963
-6.48478
-6.52689
-6.56607
-6.60236
-6.63597
-6.66694
-5.92144
-5.93445
-5.96454
-6.00794
-6.05833
-6.1117
-6.16627
-6.22096
-6.27469
-6.3266
-6.37616
-6.42307
-6.46721
-6.50852
-6.5471
-6.583
-6.6164
-6.64738
-5.89081
-5.90548
-5.93905
-5.98625
-6.03965
-6.09501
-6.15115
-6.20698
-6.26166
-6.31412
-6.36408
-6.41115
-6.45539
-6.49671
-6.53532
-6.57128
-6.6048
-6.63598
-5.84564
-5.86337
-5.90339
-5.95772
-6.01659
-6.07605
-6.13543
-6.19419
-6.251
-6.30522
-6.35634
-6.40429
-6.44902
-6.49073
-6.5296
-6.56584
-6.59964
-6.63114
-5.78712
-5.81014
-5.86064
-5.92525
-5.99129
-6.05592
-6.11988
-6.18244
-6.24232
-6.29885
-6.35167
-6.40068
-6.44605
-6.48817
-6.52737
-6.56396
-6.59814
-6.63004
-5.71739
-5.74893
-5.81489
-5.89249
-5.96627
-6.03655
-6.10577
-6.1726
-6.23579
-6.29496
-6.34953
-6.39939
-6.44516
-6.4875
-6.52696
-6.56383
-6.59837
-6.63067
-5.63729
-5.68225
-5.76975
-5.86182
-5.94266
-6.01883
-6.09381
-6.16522
-6.2322
-6.29427
-6.3502
-6.40024
-6.44577
-6.48795
-6.52743
-6.56455
-6.59964
-6.63286
-5.54681
-5.61257
-5.72845
-5.83471
-5.92084
-6.00249
-6.0823
-6.15821
-6.23158
-6.29834
-6.35553
-6.40492
-6.44909
-6.48977
-6.52775
-6.56351
-6.59736
-6.62948
-5.4455
-5.54301
-5.69312
-5.81182
-5.90223
-5.99145
-6.07188
-6.1456
-6.2273
-6.30183
-6.36333
-6.41515
-6.46059
-6.50154
-6.53902
-6.57384
-6.60665
-6.63784
-5.33202
-5.47805
-5.66151
-5.78679
-5.88197
-5.98613
-6.07519
-6.13866
-6.21922
-6.29416
-6.35774
-6.41301
-6.46187
-6.50532
-6.54439
-6.58
-6.61287
-6.64416
-5.19759
-5.43557
-5.64312
-5.75944
-5.85885
-5.96383
-6.07288
-6.16378
-6.23739
-6.3009
-6.36029
-6.41647
-6.46829
-6.51495
-6.55667
-6.59405
-6.628
-6.66067
-5.00549
-5.41041
-5.65088
-5.74775
-5.84126
-5.94327
-6.05593
-6.17595
-6.24325
-6.29476
-6.34869
-6.40442
-6.458
-6.50696
-6.55043
-6.58837
-6.62183
-6.65181
-4.75019
-5.34007
-5.64389
-5.75078
-5.85172
-5.96889
-6.08806
-6.20144
-6.26825
-6.31816
-6.37185
-6.42818
-6.48266
-6.53203
-6.5745
-6.60973
-6.63895
-6.66151
-7.56055
-7.56064
-7.56067
-7.56063
-7.56032
-7.55918
-7.55683
-7.55368
-7.55066
-7.54874
-7.54888
-7.5513
-7.55554
-7.56086
-7.56654
-7.5719
-7.57642
-7.57967
-7.58159
-7.58245
-7.58255
-7.58204
-7.58116
-7.58017
-7.57931
-7.57873
-7.5784
-7.57822
-7.57801
-7.57767
-7.57717
-7.57653
-7.57574
-7.5747
-7.57337
-7.5719
-7.57066
-7.57034
-7.57141
-7.57366
-7.57633
-7.5787
-7.58057
-7.58229
-7.58426
-7.58689
-7.59052
-7.59464
-7.59829
-7.6011
-7.60486
-7.61299
-7.62951
-7.65493
-7.6883
-7.7293
-7.77856
-7.83572
-7.89933
-7.96786
-8.03898
-8.11073
-8.18148
-8.24965
-8.3146
-8.37584
-8.43269
-8.48502
-8.53278
-8.576
-8.61475
-8.64911
-8.67913
-8.70488
-8.72637
-8.74363
-8.75664
-8.76537
-8.7698
-8.76988
-8.76556
-8.75679
-8.74351
-8.72566
-8.70318
-8.67601
-8.64412
-8.60745
-8.56593
-8.5195
-8.46807
-8.41157
-8.34994
-8.28312
-8.21108
-8.13375
-8.05109
-7.96309
-7.86975
-7.77116
-7.66737
-7.55813
-7.44307
-7.32216
-7.19559
-7.06338
-6.92557
-6.78217
-6.63319
-6.47868
-6.31868
-6.15323
-5.98241
-5.80628
-5.62494
-5.43847
-5.24698
-5.0506
-4.84944
-4.64363
-4.43331
-4.21861
-3.9997
-3.77673
-3.54989
-3.31935
-3.0853
-2.84793
-2.60745
-2.36408
-2.11803
-1.86953
-1.61883
-1.36616
-1.11179
-0.855998
-0.599122
-0.341471
-0.0831417
0.175849
0.435227
0.694631
0.95378
1.21241
1.47029
1.7272
1.98291
2.23724
2.49
2.74101
2.99012
3.2372
3.48213
3.72478
3.96508
4.20293
4.43826
4.67103
4.9012
5.12876
5.35373
5.5761
5.7959
6.01315
6.22788
6.44009
6.64979
6.85696
7.06161
7.2637
7.4632
7.66007
7.85424
8.04561
8.23407
8.41951
8.6019
8.78105
8.95989
9.12844
-7.56167
-7.56183
-7.56215
-7.56249
-7.56246
-7.56168
-7.55988
-7.55756
-7.55591
-7.55585
-7.55769
-7.56127
-7.56612
-7.5716
-7.57714
-7.58222
-7.5865
-7.58976
-7.59181
-7.59247
-7.59179
-7.59005
-7.58766
-7.58506
-7.58266
-7.58075
-7.5794
-7.57848
-7.57776
-7.5771
-7.57649
-7.57594
-7.57538
-7.57466
-7.57369
-7.57262
-7.57203
-7.57257
-7.57445
-7.57716
-7.57972
-7.58133
-7.58191
-7.58206
-7.58188
-7.58144
-7.58192
-7.58557
-7.59266
-7.59944
-7.60595
-7.61603
-7.63122
-7.65277
-7.68365
-7.72627
-7.77984
-7.84185
-7.91003
-7.98158
-8.05433
-8.12651
-8.19634
-8.2634
-8.32675
-8.38544
-8.43972
-8.48962
-8.5352
-8.57653
-8.6137
-8.64676
-8.67574
-8.70069
-8.72159
-8.73842
-8.75115
-8.75973
-8.76411
-8.76422
-8.76001
-8.75141
-8.73836
-8.72079
-8.69864
-8.67185
-8.64037
-8.60416
-8.56314
-8.51726
-8.46643
-8.41059
-8.34968
-8.28365
-8.21243
-8.13597
-8.05423
-7.96712
-7.8746
-7.77655
-7.67285
-7.56353
-7.44878
-7.32861
-7.2029
-7.0716
-6.93471
-6.79223
-6.64418
-6.49059
-6.33151
-6.16698
-5.99707
-5.82185
-5.64141
-5.45582
-5.26521
-5.06969
-4.86938
-4.66441
-4.4549
-4.241
-4.02287
-3.80066
-3.57456
-3.34473
-3.11136
-2.87465
-2.6348
-2.39202
-2.14652
-1.89854
-1.6483
-1.39605
-1.142
-0.886391
-0.629442
-0.371418
-0.112705
0.14635
0.405613
0.664923
0.924008
1.18262
1.44051
1.69747
1.95327
2.20772
2.46063
2.71182
2.96114
3.20845
3.45362
3.69654
3.93711
4.17525
4.41089
4.64396
4.87444
5.10231
5.32756
5.55022
5.77029
5.98781
6.20279
6.41524
6.62517
6.83257
7.03744
7.23976
7.43949
7.6366
7.83104
8.02274
8.21167
8.39773
8.58101
8.76087
8.94228
9.11017
-7.56291
-7.5629
-7.56292
-7.56298
-7.56304
-7.56306
-7.56326
-7.56415
-7.56621
-7.56956
-7.57402
-7.57925
-7.58483
-7.59035
-7.59546
-7.59986
-7.60334
-7.60579
-7.60713
-7.6073
-7.6063
-7.60424
-7.60128
-7.59762
-7.59349
-7.58915
-7.58489
-7.58097
-7.57761
-7.57493
-7.57291
-7.57135
-7.56997
-7.56862
-7.56758
-7.56739
-7.56862
-7.57152
-7.57547
-7.57905
-7.58082
-7.58002
-7.57776
-7.57605
-7.5762
-7.57751
-7.57956
-7.58486
-7.59484
-7.60862
-7.62665
-7.6501
-7.67938
-7.71485
-7.75697
-7.80583
-7.86049
-7.91951
-7.98141
-8.04462
-8.10794
-8.17037
-8.23105
-8.28953
-8.34533
-8.39793
-8.4472
-8.493
-8.53527
-8.57396
-8.60905
-8.64048
-8.66823
-8.69224
-8.71246
-8.72881
-8.74124
-8.74965
-8.75397
-8.75413
-8.75004
-8.74164
-8.72884
-8.71158
-8.68979
-8.66342
-8.63239
-8.59667
-8.55618
-8.51087
-8.46065
-8.40547
-8.34526
-8.27995
-8.2095
-8.13385
-8.05294
-7.96673
-7.87516
-7.77815
-7.67558
-7.56744
-7.45381
-7.33472
-7.2101
-7.07993
-6.94417
-6.80284
-6.65595
-6.50353
-6.3456
-6.18224
-6.01348
-5.83942
-5.66011
-5.47567
-5.28618
-5.09178
-4.89257
-4.68868
-4.48024
-4.2674
-4.0503
-3.8291
-3.60398
-3.37511
-3.14267
-2.90685
-2.66786
-2.4259
-2.18118
-1.93394
-1.68441
-1.43281
-1.17939
-0.924398
-0.668057
-0.41061
-0.152381
0.106316
0.365288
0.624334
0.8832
1.14164
1.39941
1.65628
1.91204
2.16649
2.41944
2.6707
2.92012
3.16755
3.41286
3.65594
3.8967
4.13503
4.37087
4.60416
4.83484
5.06291
5.28835
5.51116
5.73138
5.94901
6.16409
6.37661
6.58659
6.79401
6.99889
7.20118
7.40088
7.59795
7.79234
7.98399
8.17288
8.35894
8.54258
8.72255
8.90654
9.06996
-7.56402
-7.56376
-7.5634
-7.56339
-7.56445
-7.567
-7.57093
-7.57587
-7.58147
-7.58742
-7.59345
-7.59933
-7.60484
-7.6098
-7.61404
-7.61744
-7.61987
-7.62128
-7.62164
-7.62092
-7.61912
-7.61631
-7.61256
-7.60796
-7.60259
-7.59657
-7.59007
-7.58336
-7.57676
-7.57062
-7.56521
-7.56071
-7.55726
-7.55514
-7.55492
-7.55718
-7.56154
-7.56666
-7.5709
-7.5732
-7.57344
-7.57245
-7.57186
-7.57297
-7.57638
-7.58254
-7.59209
-7.6059
-7.62461
-7.6483
-7.67665
-7.7093
-7.74607
-7.78675
-7.83105
-7.87866
-7.9292
-7.98215
-8.0368
-8.09235
-8.14806
-8.20324
-8.25729
-8.30975
-8.36021
-8.4083
-8.45379
-8.49647
-8.53619
-8.57284
-8.60629
-8.63646
-8.66323
-8.68653
-8.70623
-8.72225
-8.73448
-8.74281
-8.74715
-8.74741
-8.74349
-8.73531
-8.72279
-8.70585
-8.68443
-8.65846
-8.62788
-8.59264
-8.55268
-8.50792
-8.45831
-8.40377
-8.34424
-8.27966
-8.20997
-8.13511
-8.05501
-7.96963
-7.8789
-7.78277
-7.68118
-7.57409
-7.46154
-7.3435
-7.21993
-7.09082
-6.95614
-6.81589
-6.67008
-6.51874
-6.36191
-6.19963
-6.03195
-5.85896
-5.68073
-5.49735
-5.30892
-5.11556
-4.91738
-4.71451
-4.50708
-4.29523
-4.0791
-3.85886
-3.63467
-3.4067
-3.17513
-2.94017
-2.70199
-2.46082
-2.21685
-1.97032
-1.72145
-1.47048
-1.21765
-0.963191
-0.707369
-0.45043
-0.192653
0.0656925
0.324384
0.583187
0.84185
1.10013
1.35778
1.61458
1.87031
2.12476
2.37774
2.62907
2.87858
3.12612
3.37157
3.6148
3.85573
4.09423
4.33025
4.56372
4.79459
5.02282
5.24842
5.47138
5.69171
5.90944
6.12458
6.33714
6.54714
6.75455
6.95938
7.16161
7.36121
7.55816
7.75244
7.94399
8.13281
8.31882
8.50254
8.6821
8.86663
9.0236
-7.56625
-7.56569
-7.56531
-7.56658
-7.57054
-7.5766
-7.58371
-7.59115
-7.59846
-7.60535
-7.61169
-7.61741
-7.62245
-7.62674
-7.6302
-7.63274
-7.63431
-7.63485
-7.63433
-7.63273
-7.63005
-7.62632
-7.6216
-7.61591
-7.60934
-7.60194
-7.59379
-7.58504
-7.57596
-7.56696
-7.55859
-7.55149
-7.54646
-7.54441
-7.54584
-7.54979
-7.5544
-7.55862
-7.56197
-7.56439
-7.56639
-7.56882
-7.57286
-7.57949
-7.58962
-7.60398
-7.62282
-7.64573
-7.67219
-7.70194
-7.7346
-7.76995
-7.80792
-7.84844
-7.89142
-7.93665
-7.98382
-8.03255
-8.08237
-8.13275
-8.18318
-8.23319
-8.28235
-8.33029
-8.37665
-8.42113
-8.4635
-8.50353
-8.54104
-8.57586
-8.60784
-8.63683
-8.66269
-8.68528
-8.70447
-8.72011
-8.73209
-8.74027
-8.74455
-8.74482
-8.74096
-8.73289
-8.72053
-8.70379
-8.68259
-8.65689
-8.62661
-8.59171
-8.55213
-8.50779
-8.45864
-8.4046
-8.34562
-8.28162
-8.21256
-8.13835
-8.05895
-7.97429
-7.88432
-7.78899
-7.68823
-7.58202
-7.47035
-7.35319
-7.23051
-7.10228
-6.96848
-6.82912
-6.68421
-6.53376
-6.37782
-6.21642
-6.04962
-5.8775
-5.70013
-5.51761
-5.33004
-5.13752
-4.94017
-4.73812
-4.5315
-4.32044
-4.10509
-3.88561
-3.66216
-3.43492
-3.20406
-2.96976
-2.73224
-2.49168
-2.24831
-2.00234
-1.754
-1.50352
-1.25114
-0.997092
-0.741645
-0.485059
-0.227593
0.0304966
0.288975
0.547597
0.80611
1.06427
1.32184
1.57858
1.83428
2.08874
2.34175
2.59313
2.8427
3.09033
3.33588
3.57922
3.82025
4.05888
4.29502
4.52861
4.75959
4.98794
5.21363
5.43668
5.65708
5.87486
6.09004
6.30262
6.5126
6.72
6.92479
7.12697
7.32651
7.5234
7.71759
7.90906
8.09779
8.28363
8.46712
8.64582
8.82976
8.97975
-7.5704
-7.56951
-7.56994
-7.57409
-7.58122
-7.58945
-7.59783
-7.60588
-7.61333
-7.62011
-7.6262
-7.63158
-7.63621
-7.64
-7.64291
-7.64485
-7.64577
-7.64565
-7.64446
-7.64218
-7.63883
-7.63441
-7.62895
-7.62246
-7.61492
-7.60642
-7.59706
-7.58702
-7.57652
-7.56608
-7.55651
-7.54873
-7.54386
-7.5424
-7.54349
-7.54564
-7.5482
-7.55133
-7.55532
-7.56038
-7.56647
-7.57407
-7.58446
-7.59861
-7.6166
-7.63817
-7.66292
-7.69055
-7.7207
-7.75309
-7.78754
-7.82392
-7.86213
-7.90209
-7.94368
-7.98676
-8.0311
-8.07642
-8.12242
-8.16875
-8.21507
-8.26105
-8.30638
-8.35075
-8.39388
-8.43549
-8.47536
-8.51325
-8.54895
-8.58228
-8.61304
-8.64106
-8.66614
-8.68813
-8.70686
-8.72216
-8.73389
-8.7419
-8.74607
-8.74627
-8.7424
-8.73435
-8.72203
-8.70537
-8.68428
-8.65871
-8.6286
-8.5939
-8.55455
-8.5105
-8.46166
-8.40797
-8.34939
-8.28583
-8.21724
-8.14355
-8.06469
-7.98061
-7.89125
-7.79655
-7.69646
-7.59095
-7.47997
-7.3635
-7.24151
-7.11397
-6.98086
-6.84219
-6.69795
-6.54818
-6.39291
-6.23218
-6.06605
-5.89458
-5.71786
-5.53598
-5.34903
-5.15714
-4.96042
-4.75898
-4.55295
-4.34248
-4.12772
-3.9088
-3.6859
-3.45919
-3.22884
-2.99504
-2.75799
-2.51788
-2.27494
-2.02937
-1.78141
-1.53127
-1.27921
-1.02545
-0.770259
-0.513904
-0.256635
0.00129344
0.259636
0.518144
0.776564
1.03465
1.29217
1.54888
1.80457
2.05903
2.31206
2.56346
2.81308
3.06076
3.30635
3.54974
3.79083
4.02951
4.2657
4.49932
4.73033
4.9587
5.18441
5.40745
5.62784
5.8456
6.06074
6.27327
6.48321
6.69053
6.89524
7.09732
7.29676
7.49353
7.6876
7.87891
8.06745
8.25298
8.43603
8.61365
8.79685
8.94003
-7.57565
-7.57514
-7.57756
-7.58438
-7.59291
-7.60145
-7.60962
-7.61728
-7.62438
-7.63088
-7.63672
-7.64184
-7.64616
-7.64962
-7.65214
-7.65367
-7.65417
-7.65362
-7.65198
-7.64926
-7.64546
-7.64061
-7.63464
-7.6275
-7.61926
-7.61006
-7.6001
-7.58961
-7.57892
-7.56866
-7.55974
-7.55312
-7.54903
-7.54669
-7.54546
-7.54549
-7.54723
-7.55118
-7.55709
-7.56493
-7.57538
-7.58903
-7.60593
-7.62594
-7.64883
-7.67435
-7.70218
-7.73209
-7.76391
-7.79748
-7.83264
-7.86924
-7.90719
-7.94635
-7.98663
-8.0279
-8.06999
-8.11273
-8.15591
-8.19929
-8.24265
-8.28573
-8.32829
-8.37007
-8.41084
-8.45034
-8.48836
-8.52467
-8.55904
-8.59127
-8.62113
-8.64842
-8.67293
-8.69447
-8.71285
-8.72788
-8.7394
-8.74724
-8.75128
-8.75137
-8.74742
-8.7393
-8.72694
-8.71025
-8.68915
-8.66359
-8.63351
-8.59887
-8.55962
-8.5157
-8.46703
-8.41357
-8.35524
-8.29199
-8.22373
-8.15041
-8.07196
-7.98831
-7.89941
-7.8052
-7.70562
-7.60063
-7.49018
-7.37423
-7.25275
-7.12571
-6.99311
-6.85493
-6.71119
-6.5619
-6.4071
-6.24684
-6.08117
-5.91016
-5.73388
-5.55245
-5.36595
-5.17449
-4.9782
-4.77719
-4.57158
-4.36153
-4.14717
-3.92865
-3.70613
-3.47978
-3.24978
-3.01633
-2.77959
-2.53979
-2.29713
-2.05184
-1.80412
-1.55421
-1.30234
-1.04876
-0.793735
-0.537518
-0.280361
-0.0225204
0.235752
0.494203
0.752581
1.01064
1.26814
1.52484
1.78054
2.035
2.28803
2.53945
2.78908
3.03676
3.28236
3.52576
3.76685
4.00552
4.24168
4.47526
4.70622
4.93452
5.16015
5.38311
5.60341
5.82107
6.03611
6.24853
6.45833
6.66552
6.87008
7.07201
7.27129
7.46789
7.66178
7.85289
8.04117
8.2263
8.4088
8.5853
8.76785
8.90467
-7.57989
-7.58052
-7.58541
-7.59334
-7.60162
-7.60957
-7.61718
-7.62443
-7.63124
-7.63753
-7.64318
-7.64812
-7.65226
-7.65552
-7.65783
-7.65915
-7.65942
-7.65864
-7.65677
-7.65384
-7.64983
-7.64469
-7.63832
-7.63083
-7.62244
-7.61329
-7.60354
-7.59349
-7.58369
-7.57496
-7.56782
-7.56209
-7.55719
-7.5531
-7.5507
-7.55063
-7.55296
-7.55808
-7.56639
-7.57797
-7.59271
-7.61041
-7.63091
-7.65399
-7.67937
-7.70684
-7.7362
-7.76725
-7.79986
-7.83386
-7.86911
-7.9055
-7.94293
-7.98129
-8.02048
-8.06039
-8.10088
-8.14183
-8.1831
-8.2245
-8.26587
-8.30699
-8.34767
-8.38771
-8.42689
-8.46498
-8.50177
-8.53704
-8.57054
-8.60206
-8.63136
-8.6582
-8.68237
-8.70363
-8.72179
-8.73664
-8.748
-8.75569
-8.75958
-8.75954
-8.75544
-8.74719
-8.73469
-8.71786
-8.69664
-8.67096
-8.64079
-8.60608
-8.5668
-8.52288
-8.47426
-8.42088
-8.36268
-8.29959
-8.23155
-8.15848
-8.08031
-7.99697
-7.90841
-7.81455
-7.71533
-7.61071
-7.50063
-7.38504
-7.26392
-7.13723
-7.00497
-6.86712
-6.7237
-6.57473
-6.42024
-6.26028
-6.09491
-5.92418
-5.74819
-5.56703
-5.38081
-5.18964
-4.99362
-4.79289
-4.58756
-4.37777
-4.16367
-3.9454
-3.72313
-3.49702
-3.26725
-3.034
-2.79747
-2.55786
-2.31538
-2.07025
-1.82267
-1.57289
-1.32113
-1.06765
-0.812701
-0.556548
-0.299438
-0.04163
0.216622
0.47506
0.733434
0.991496
1.249
1.50572
1.76143
2.0159
2.26894
2.52036
2.76999
3.01766
3.26324
3.50661
3.74766
3.98627
4.22236
4.45584
4.68668
4.91486
5.14035
5.36316
5.58331
5.80081
6.01569
6.22794
6.43756
6.64455
6.84892
7.05065
7.24972
7.44613
7.6398
7.83066
8.01863
8.20332
8.38523
8.56063
8.74264
8.87368
-7.5814
-7.58353
-7.58997
-7.59772
-7.60531
-7.61273
-7.61998
-7.62699
-7.63364
-7.63982
-7.64541
-7.6503
-7.6544
-7.65763
-7.65991
-7.6612
-7.66146
-7.66067
-7.65881
-7.65588
-7.65182
-7.64657
-7.64017
-7.63285
-7.62481
-7.61619
-7.6073
-7.59858
-7.59049
-7.58327
-7.57677
-7.57075
-7.56531
-7.56109
-7.559
-7.55969
-7.56352
-7.57079
-7.58148
-7.59532
-7.61219
-7.63182
-7.65398
-7.67843
-7.70493
-7.73329
-7.76331
-7.79484
-7.8277
-7.86177
-7.89691
-7.93303
-7.97001
-8.00776
-8.04617
-8.08515
-8.12461
-8.16443
-8.2045
-8.24467
-8.2848
-8.32473
-8.36429
-8.4033
-8.44155
-8.47885
-8.51498
-8.5497
-8.58278
-8.61398
-8.64303
-8.6697
-8.69374
-8.71491
-8.73298
-8.74774
-8.75898
-8.76654
-8.77027
-8.77004
-8.76575
-8.75728
-8.74456
-8.7275
-8.70604
-8.68013
-8.64973
-8.61483
-8.57539
-8.53136
-8.48266
-8.42925
-8.37108
-8.30805
-8.24012
-8.16718
-8.08918
-8.00604
-7.9177
-7.82407
-7.72509
-7.62071
-7.51086
-7.39551
-7.27461
-7.14814
-7.01608
-6.87843
-6.73519
-6.5864
-6.43208
-6.27229
-6.10707
-5.93649
-5.76064
-5.57963
-5.39356
-5.20254
-5.00668
-4.8061
-4.60093
-4.3913
-4.17735
-3.95922
-3.73709
-3.51111
-3.28146
-3.04833
-2.81191
-2.5724
-2.33002
-2.08497
-1.83747
-1.58774
-1.33601
-1.08256
-0.827639
-0.571499
-0.314391
-0.0565743
0.20169
0.460146
0.718539
0.976623
1.23415
1.49089
1.74661
2.00109
2.25413
2.50554
2.75514
3.00277
3.24829
3.49162
3.7326
3.97112
4.20707
4.44042
4.67109
4.89909
5.12439
5.347
5.56694
5.78424
5.99892
6.21096
6.42036
6.62713
6.83126
7.03277
7.23163
7.4278
7.62125
7.81184
7.99947
8.1837
8.36502
8.53936
8.72091
8.84686
-7.57869
-7.58211
-7.58884
-7.59606
-7.60327
-7.61046
-7.61758
-7.62454
-7.6312
-7.63745
-7.64316
-7.6482
-7.65247
-7.65588
-7.65835
-7.65982
-7.66025
-7.65962
-7.65789
-7.65506
-7.65109
-7.646
-7.63994
-7.63312
-7.62579
-7.61819
-7.61062
-7.60324
-7.59609
-7.58928
-7.58287
-7.57703
-7.57221
-7.56907
-7.56832
-7.57044
-7.5757
-7.58423
-7.59603
-7.61092
-7.6287
-7.64914
-7.67198
-7.69699
-7.72393
-7.75261
-7.78287
-7.81452
-7.84743
-7.88146
-7.9165
-7.95241
-7.9891
-8.02647
-8.06444
-8.10292
-8.14182
-8.18104
-8.22049
-8.26004
-8.29957
-8.33895
-8.37801
-8.41658
-8.45449
-8.49153
-8.52748
-8.56211
-8.59517
-8.62638
-8.65548
-8.68221
-8.70631
-8.72751
-8.74559
-8.7603
-8.77145
-8.77888
-8.78242
-8.78198
-8.77743
-8.76868
-8.75566
-8.73828
-8.71649
-8.69024
-8.65952
-8.62431
-8.58461
-8.54035
-8.49148
-8.43795
-8.37969
-8.31663
-8.2487
-8.17582
-8.0979
-8.01486
-7.92663
-7.83313
-7.73429
-7.63003
-7.52032
-7.40509
-7.28431
-7.15795
-7.02598
-6.88842
-6.74526
-6.59654
-6.44229
-6.28255
-6.11738
-5.94684
-5.77104
-5.59007
-5.40406
-5.21309
-5.0173
-4.81678
-4.61168
-4.40212
-4.18824
-3.97018
-3.74811
-3.52219
-3.2926
-3.05952
-2.82314
-2.58368
-2.34134
-2.09632
-1.84883
-1.5991
-1.34737
-1.09391
-0.838977
-0.582819
-0.325687
-0.0678418
0.190454
0.448942
0.707366
0.965478
1.22303
1.47979
1.73551
1.98999
2.24302
2.4944
2.74396
2.99153
3.23699
3.48024
3.72113
3.95952
4.19532
4.42847
4.65894
4.88671
5.11177
5.33414
5.55384
5.77091
5.98536
6.19716
6.40631
6.61282
6.81671
7.01797
7.21658
7.41252
7.60572
7.79603
7.98331
8.16706
8.34778
8.52112
8.70225
8.82382
-7.56999
-7.57408
-7.58059
-7.58768
-7.59498
-7.60231
-7.60957
-7.61671
-7.6236
-7.63012
-7.63614
-7.6415
-7.6461
-7.64982
-7.65259
-7.65435
-7.65504
-7.65466
-7.65319
-7.65062
-7.64699
-7.6424
-7.63702
-7.63105
-7.62466
-7.61796
-7.61109
-7.60421
-7.59741
-7.59085
-7.58483
-7.57976
-7.57605
-7.57416
-7.57461
-7.57783
-7.58407
-7.59343
-7.6059
-7.62135
-7.63959
-7.66038
-7.68348
-7.70867
-7.73576
-7.76455
-7.79487
-7.82657
-7.8595
-7.89353
-7.92851
-7.96435
-8.00094
-8.03819
-8.07603
-8.11436
-8.1531
-8.19217
-8.23147
-8.27091
-8.31037
-8.34971
-8.38879
-8.42743
-8.46544
-8.50264
-8.5388
-8.57367
-8.60699
-8.63849
-8.66788
-8.69486
-8.71917
-8.74054
-8.7587
-8.77342
-8.78449
-8.79176
-8.79509
-8.79436
-8.78949
-8.7804
-8.76699
-8.74921
-8.72699
-8.7003
-8.66914
-8.63353
-8.59346
-8.5489
-8.49976
-8.44601
-8.38759
-8.32443
-8.25644
-8.18353
-8.10562
-8.02261
-7.93442
-7.84097
-7.74218
-7.63798
-7.52832
-7.41314
-7.29241
-7.16607
-7.03413
-6.89657
-6.75342
-6.6047
-6.45045
-6.2907
-6.1255
-5.95492
-5.77907
-5.59809
-5.41207
-5.22111
-5.02533
-4.82483
-4.61975
-4.41021
-4.19635
-3.97832
-3.75628
-3.53038
-3.3008
-3.06774
-2.83138
-2.59194
-2.34961
-2.1046
-1.85711
-1.60735
-1.35558
-1.10208
-0.84713
-0.59095
-0.333792
-0.0759197
0.182405
0.440921
0.699373
0.957506
1.21508
1.47184
1.72757
1.98204
2.23504
2.48637
2.73585
2.98333
3.22869
3.47185
3.71264
3.95087
4.18647
4.41939
4.64961
4.87712
5.10192
5.32401
5.54344
5.76026
5.97448
6.18604
6.39493
6.60117
6.8048
7.0058
7.20417
7.39988
7.59284
7.78288
7.9698
8.15308
8.33323
8.50564
8.68637
8.80425
-7.55383
-7.55795
-7.56455
-7.57226
-7.58016
-7.58791
-7.5955
-7.60295
-7.61022
-7.61719
-7.62369
-7.62954
-7.63457
-7.63871
-7.64187
-7.64402
-7.64512
-7.64515
-7.64413
-7.64207
-7.63904
-7.63513
-7.63045
-7.62514
-7.61932
-7.61312
-7.60663
-7.60003
-7.59351
-7.5874
-7.58201
-7.57768
-7.57482
-7.57389
-7.57533
-7.57947
-7.58652
-7.59657
-7.60958
-7.62544
-7.64396
-7.66493
-7.68815
-7.71342
-7.74057
-7.76942
-7.7998
-7.83156
-7.86456
-7.89864
-7.93369
-7.96961
-8.0063
-8.04369
-8.08168
-8.12018
-8.15909
-8.19835
-8.23787
-8.27756
-8.3173
-8.35696
-8.39641
-8.43548
-8.47397
-8.51167
-8.54836
-8.58377
-8.61762
-8.64964
-8.6795
-8.70689
-8.73151
-8.75309
-8.77136
-8.78607
-8.797
-8.804
-8.80699
-8.80589
-8.80061
-8.79109
-8.77723
-8.75896
-8.73623
-8.70901
-8.6773
-8.64117
-8.60067
-8.55575
-8.50631
-8.4523
-8.39367
-8.33036
-8.26227
-8.1893
-8.11136
-8.02835
-7.94016
-7.84671
-7.74792
-7.64374
-7.5341
-7.41893
-7.2982
-7.17186
-7.03989
-6.90231
-6.75912
-6.61036
-6.45608
-6.29628
-6.13101
-5.96032
-5.7844
-5.60338
-5.41734
-5.22639
-5.03061
-4.83012
-4.62506
-4.41554
-4.2017
-3.98369
-3.76167
-3.53579
-3.30624
-3.07321
-2.83688
-2.59748
-2.35518
-2.1102
-1.86272
-1.61293
-1.36109
-1.10755
-0.852568
-0.596375
-0.339203
-0.0813161
0.177025
0.435557
0.694023
0.952167
1.20974
1.4665
1.72221
1.97664
2.22959
2.48084
2.73023
2.97758
3.22283
3.46592
3.70662
3.94468
4.18004
4.4127
4.64264
4.86987
5.09437
5.31617
5.5353
5.75188
5.96587
6.17718
6.3858
6.59177
6.79513
6.99588
7.194
7.38947
7.58221
7.77198
7.95857
8.14138
8.32098
8.49254
8.67284
8.78774
-7.52975
-7.53364
-7.541
-7.54993
-7.55874
-7.56702
-7.57501
-7.58294
-7.59084
-7.59854
-7.60577
-7.61228
-7.61791
-7.62258
-7.62627
-7.62894
-7.63058
-7.63118
-7.63073
-7.62928
-7.62685
-7.62354
-7.61942
-7.61459
-7.60914
-7.60321
-7.59696
-7.59063
-7.58448
-7.57878
-7.57386
-7.57012
-7.568
-7.56791
-7.5702
-7.57516
-7.58293
-7.59358
-7.60704
-7.62321
-7.64193
-7.66302
-7.68631
-7.71164
-7.73885
-7.76778
-7.79829
-7.83019
-7.86335
-7.8976
-7.93285
-7.969
-8.00594
-8.04361
-8.0819
-8.12073
-8.16004
-8.19974
-8.23974
-8.27996
-8.32027
-8.36054
-8.40066
-8.44043
-8.47967
-8.51816
-8.55563
-8.59182
-8.62642
-8.65907
-8.68943
-8.71717
-8.742
-8.76368
-8.78194
-8.79648
-8.80707
-8.81364
-8.81616
-8.8146
-8.80887
-8.79891
-8.78459
-8.76583
-8.74255
-8.71471
-8.68235
-8.64563
-8.60467
-8.55939
-8.50964
-8.45535
-8.39651
-8.33303
-8.26484
-8.19182
-8.11386
-8.03084
-7.94264
-7.84918
-7.7504
-7.64624
-7.53662
-7.42148
-7.30076
-7.17441
-7.04243
-6.90481
-6.76157
-6.61278
-6.45845
-6.29862
-6.13328
-5.96251
-5.78653
-5.60549
-5.41945
-5.22849
-5.03272
-4.83225
-4.62721
-4.41772
-4.20392
-3.98595
-3.76397
-3.53814
-3.30865
-3.07569
-2.83944
-2.60012
-2.35792
-2.11305
-1.86567
-1.61592
-1.36409
-1.11055
-0.855585
-0.599421
-0.342285
-0.0844298
0.173879
0.432381
0.690813
0.948922
1.20645
1.46316
1.71881
1.97317
2.22602
2.47717
2.72644
2.97366
3.21878
3.46184
3.70247
3.94033
4.17542
4.4078
4.63745
4.86439
5.0886
5.3101
5.52895
5.74532
5.95913
6.17021
6.37855
6.58425
6.78735
6.98786
7.18575
7.38102
7.57357
7.7631
7.94936
8.13174
8.31082
8.48159
8.66143
8.77403
-7.49864
-7.50268
-7.51138
-7.52192
-7.53173
-7.54065
-7.54936
-7.55803
-7.56665
-7.57521
-7.58346
-7.59101
-7.59746
-7.60271
-7.60694
-7.61021
-7.61247
-7.61369
-7.61386
-7.61298
-7.6111
-7.60825
-7.60449
-7.59993
-7.59468
-7.58893
-7.58286
-7.57671
-7.57075
-7.56534
-7.56085
-7.55768
-7.55623
-7.55688
-7.5599
-7.56553
-7.57388
-7.58496
-7.59875
-7.61514
-7.63402
-7.65522
-7.6786
-7.70399
-7.73128
-7.7603
-7.7909
-7.82293
-7.85624
-7.8907
-7.92621
-7.96265
-7.99993
-8.03797
-8.07669
-8.116
-8.15585
-8.19616
-8.23683
-8.27776
-8.31884
-8.35993
-8.40087
-8.4415
-8.48159
-8.52091
-8.55919
-8.59612
-8.63137
-8.66454
-8.69523
-8.72307
-8.74785
-8.7694
-8.78742
-8.80151
-8.81145
-8.81735
-8.81936
-8.81742
-8.81139
-8.80116
-8.78654
-8.7674
-8.74366
-8.71523
-8.68217
-8.64482
-8.60345
-8.55783
-8.50775
-8.45314
-8.39401
-8.33034
-8.26203
-8.18896
-8.11097
-8.02791
-7.93966
-7.84617
-7.74737
-7.64321
-7.53361
-7.41849
-7.29778
-7.17142
-7.0394
-6.90174
-6.75848
-6.60968
-6.45536
-6.29558
-6.13037
-5.95978
-5.78391
-5.60286
-5.41676
-5.22572
-5.02986
-4.82931
-4.6242
-4.41465
-4.2008
-3.9828
-3.76081
-3.535
-3.30553
-3.07261
-2.83643
-2.5972
-2.35513
-2.11041
-1.86324
-1.61382
-1.36239
-1.10918
-0.854453
-0.598473
-0.341515
-0.0838385
0.17429
0.432609
0.690855
0.94877
1.2061
1.4626
1.71802
1.97215
2.22476
2.47566
2.72468
2.97164
3.21651
3.45935
3.69977
3.9373
4.17207
4.40413
4.63348
4.86012
5.08404
5.30527
5.52393
5.74018
5.95386
6.16471
6.37279
6.57824
6.78112
6.98142
7.17912
7.37424
7.56665
7.75598
7.94193
8.12389
8.30249
8.47253
8.65186
8.76281
-7.46301
-7.46781
-7.47837
-7.49092
-7.50185
-7.51116
-7.52026
-7.52987
-7.53975
-7.54951
-7.55887
-7.56754
-7.57495
-7.58086
-7.58563
-7.58951
-7.5924
-7.59422
-7.59494
-7.59454
-7.59304
-7.59047
-7.58691
-7.58247
-7.57728
-7.57153
-7.56545
-7.55933
-7.55349
-7.54832
-7.54418
-7.54148
-7.54056
-7.54174
-7.54527
-7.55133
-7.55999
-7.5713
-7.58523
-7.6017
-7.6206
-7.6418
-7.66517
-7.69057
-7.71788
-7.74694
-7.77759
-7.8097
-7.84314
-7.8778
-7.91355
-7.9503
-7.98796
-8.02645
-8.06567
-8.10557
-8.14604
-8.187
-8.22834
-8.26995
-8.31171
-8.35348
-8.3951
-8.43638
-8.4771
-8.51703
-8.55585
-8.59326
-8.62889
-8.66226
-8.69287
-8.72032
-8.74462
-8.76575
-8.78328
-8.79656
-8.80536
-8.81024
-8.8117
-8.80958
-8.80355
-8.79335
-8.77871
-8.75948
-8.73569
-8.70746
-8.67481
-8.63787
-8.59652
-8.55071
-8.50031
-8.44535
-8.3859
-8.32197
-8.25346
-8.18022
-8.10209
-8.0189
-7.93053
-7.83692
-7.73804
-7.63381
-7.52415
-7.40896
-7.28817
-7.1617
-7.02957
-6.8918
-6.74846
-6.59957
-6.44519
-6.28539
-6.12024
-5.9498
-5.774
-5.59292
-5.40673
-5.21558
-5.01961
-4.81896
-4.61375
-4.40413
-4.19021
-3.97217
-3.75015
-3.52433
-3.29488
-3.06199
-2.82587
-2.58672
-2.34476
-2.10017
-1.85319
-1.60412
-1.35313
-1.10033
-0.845918
-0.59021
-0.33352
-0.0761204
0.181728
0.439756
0.697704
0.955306
1.21231
1.46846
1.72353
1.97727
2.22946
2.4799
2.72839
2.97475
3.21885
3.46057
3.69987
3.93666
4.17088
4.40246
4.63136
4.85756
5.08106
5.30193
5.52031
5.73633
5.94976
6.16031
6.36811
6.57332
6.77601
6.97616
7.17375
7.36885
7.56124
7.75042
7.93608
8.11766
8.29582
8.46519
8.64396
8.75391
-7.42495
-7.43081
-7.4437
-7.45818
-7.46953
-7.47927
-7.48947
-7.50035
-7.51143
-7.52239
-7.53298
-7.54284
-7.55127
-7.55801
-7.56352
-7.56811
-7.57167
-7.5741
-7.57534
-7.57535
-7.57414
-7.57175
-7.56824
-7.56376
-7.55844
-7.55253
-7.54628
-7.54002
-7.5341
-7.52891
-7.52482
-7.5222
-7.52137
-7.52263
-7.52618
-7.5322
-7.54077
-7.55192
-7.56564
-7.58188
-7.60054
-7.62153
-7.64476
-7.67007
-7.69734
-7.72639
-7.75708
-7.78929
-7.8229
-7.85776
-7.8938
-7.93087
-7.96892
-8.0078
-8.04745
-8.08777
-8.12868
-8.17006
-8.21181
-8.25382
-8.29596
-8.3381
-8.38007
-8.42168
-8.46271
-8.50293
-8.54202
-8.57968
-8.61545
-8.64869
-8.67851
-8.70452
-8.72732
-8.74769
-8.76529
-8.77929
-8.78911
-8.79469
-8.79638
-8.7942
-8.78803
-8.77763
-8.76273
-8.74318
-8.71913
-8.69092
-8.65867
-8.62196
-8.5806
-8.53453
-8.48382
-8.42859
-8.36894
-8.30484
-8.23616
-8.16278
-8.08456
-8.00132
-7.91294
-7.81937
-7.72055
-7.61638
-7.50676
-7.39161
-7.27084
-7.1444
-7.01227
-6.87452
-6.73116
-6.58225
-6.42784
-6.26799
-6.10279
-5.93226
-5.75644