/*--------------------------------*- C++ -*----------------------------------*\
  =========                 |
  \\      /  F ield         | OpenFOAM: The Open Source CFD Toolbox
   \\    /   O peration     | Website:  https://openfoam.org
    \\  /    A nd           | Version:  13
     \\/     M anipulation  |
\*---------------------------------------------------------------------------*/
FoamFile
{
    format      ascii;
    class       surfaceScalarField;
    location    "900";
    object      phi;
}
// * * * * * * * * * * * * * * * * * * * * * * * * * * * * * * * * * * * * * //

dimensions      [0 3 -1 0 0 0 0];

internalField   nonuniform List<scalar> 
24170
(
3.04266e-06
1.45742e-07
2.88036e-06
1.62264e-07
2.73515e-06
1.45193e-07
2.60684e-06
1.28315e-07
2.49285e-06
1.13997e-07
2.39423e-06
9.86206e-08
2.31297e-06
8.12627e-08
2.24313e-06
6.9828e-08
2.18269e-06
6.04388e-08
2.13186e-06
5.08049e-08
2.0905e-06
4.13511e-08
2.05791e-06
3.25679e-08
2.0325e-06
2.53909e-08
2.01342e-06
1.90522e-08
1.9995e-06
1.39002e-08
1.98995e-06
9.53598e-09
1.98404e-06
5.91449e-09
4.01803e-09
1.98002e-06
3.49111e-06
7.18746e-08
3.53676e-06
1.16558e-07
3.56199e-06
1.19898e-07
3.57118e-06
1.19118e-07
3.56564e-06
1.19535e-07
3.54862e-06
1.1564e-07
3.52439e-06
1.05494e-07
3.4964e-06
9.78286e-08
3.46626e-06
9.05795e-08
3.43498e-06
8.20866e-08
3.40414e-06
7.21797e-08
3.37311e-06
6.35854e-08
3.34197e-06
5.65161e-08
3.31097e-06
5.00246e-08
3.2803e-06
4.45418e-08
3.25032e-06
3.9496e-08
3.22212e-06
3.40965e-08
3.02642e-08
3.19586e-06
3.68067e-06
5.37261e-08
3.69851e-06
9.87092e-08
3.71464e-06
1.03768e-07
3.73173e-06
1.02033e-07
3.74888e-06
1.02397e-07
3.76489e-06
9.96341e-08
3.77771e-06
9.26735e-08
3.78829e-06
8.72445e-08
3.79656e-06
8.23068e-08
3.80225e-06
7.63939e-08
3.80527e-06
6.91529e-08
3.80626e-06
6.25858e-08
3.80566e-06
5.71067e-08
3.80348e-06
5.21992e-08
3.79998e-06
4.80364e-08
3.79526e-06
4.42146e-08
3.78941e-06
3.99465e-08
3.55612e-08
3.78409e-06
3.93516e-06
4.39501e-08
3.94637e-06
8.74733e-08
3.95357e-06
9.65383e-08
3.9602e-06
9.53911e-08
3.96709e-06
9.55119e-08
3.97395e-06
9.2776e-08
3.98001e-06
8.66253e-08
3.9861e-06
8.11663e-08
3.99228e-06
7.61321e-08
3.99821e-06
7.04702e-08
4.00344e-06
6.39319e-08
4.00813e-06
5.78905e-08
4.01254e-06
5.26987e-08
4.01669e-06
4.80409e-08
4.02072e-06
4.40039e-08
4.02463e-06
4.03013e-08
4.02829e-06
3.62688e-08
3.2253e-08
4.03159e-06
4.21543e-06
3.56568e-08
4.22516e-06
7.77526e-08
4.23267e-06
8.90363e-08
4.23858e-06
8.94758e-08
4.24436e-06
8.9753e-08
4.24964e-06
8.7501e-08
4.25386e-06
8.24022e-08
4.25774e-06
7.72832e-08
4.26153e-06
7.23469e-08
4.26511e-06
6.68867e-08
4.2682e-06
6.08392e-08
4.27092e-06
5.51631e-08
4.27348e-06
5.01399e-08
4.27593e-06
4.55874e-08
4.27843e-06
4.15106e-08
4.28104e-06
3.769e-08
4.28365e-06
3.36501e-08
2.96185e-08
4.28626e-06
4.51623e-06
2.85143e-08
4.52636e-06
6.76062e-08
4.53348e-06
8.19052e-08
4.53806e-06
8.48879e-08
4.54339e-06
8.44256e-08
4.54869e-06
8.22033e-08
4.55314e-06
7.79612e-08
4.55718e-06
7.32477e-08
4.561e-06
6.85296e-08
4.56453e-06
6.33606e-08
4.56758e-06
5.77915e-08
4.57024e-06
5.24993e-08
4.57269e-06
4.76924e-08
4.57499e-06
4.32845e-08
4.57726e-06
3.92449e-08
4.57955e-06
3.5395e-08
4.58175e-06
3.14325e-08
2.75207e-08
4.58383e-06
4.83801e-06
2.32259e-08
4.84685e-06
5.87905e-08
4.8545e-06
7.42646e-08
4.86091e-06
7.8483e-08
4.86676e-06
7.8583e-08
4.87205e-06
7.69146e-08
4.87666e-06
7.33552e-08
4.88081e-06
6.90908e-08
4.8847e-06
6.46343e-08
4.88828e-06
5.97799e-08
4.89143e-06
5.46428e-08
4.89421e-06
4.97076e-08
4.89677e-06
4.51342e-08
4.89916e-06
4.08939e-08
4.90146e-06
3.69459e-08
4.9037e-06
3.31509e-08
4.90578e-06
2.93407e-08
2.56273e-08
4.90767e-06
5.18355e-06
1.92662e-08
5.19147e-06
5.08675e-08
5.19912e-06
6.66147e-08
5.20604e-06
7.15619e-08
5.21221e-06
7.2425e-08
5.21779e-06
7.1338e-08
5.2227e-06
6.84404e-08
5.22713e-06
6.46686e-08
5.23123e-06
6.05314e-08
5.23498e-06
5.60254e-08
5.23832e-06
5.13027e-08
5.24131e-06
4.67144e-08
5.24404e-06
4.23959e-08
5.24658e-06
3.83486e-08
5.24899e-06
3.45373e-08
5.25126e-06
3.08709e-08
5.25333e-06
2.72547e-08
2.37867e-08
5.25517e-06
5.55443e-06
1.61775e-08
5.5615e-06
4.38208e-08
5.56907e-06
5.9056e-08
5.57601e-06
6.46237e-08
5.5823e-06
6.61415e-08
5.58809e-06
6.55541e-08
5.59329e-06
6.32344e-08
5.59801e-06
5.99452e-08
5.60237e-06
5.61713e-08
5.60635e-06
5.20417e-08
5.60993e-06
4.77218e-08
5.61315e-06
4.34886e-08
5.6161e-06
3.94421e-08
5.61883e-06
3.5617e-08
5.62137e-06
3.19876e-08
5.62373e-06
2.84993e-08
5.62587e-06
2.51128e-08
2.18989e-08
5.62775e-06
5.95227e-06
1.36893e-08
5.9586e-06
3.75041e-08
5.96597e-06
5.17018e-08
5.97287e-06
5.77268e-08
5.97926e-06
5.97571e-08
5.98522e-06
5.96027e-08
5.99067e-06
5.77917e-08
5.99565e-06
5.49623e-08
6.00025e-06
5.1569e-08
6.00446e-06
4.78267e-08
6.00827e-06
4.39044e-08
6.01173e-06
4.00203e-08
6.0149e-06
3.62705e-08
6.01781e-06
3.26939e-08
6.0205e-06
2.9287e-08
6.02297e-06
2.60214e-08
6.02519e-06
2.28836e-08
1.99282e-08
6.02716e-06
6.37889e-06
1.16184e-08
6.38459e-06
3.18262e-08
6.39155e-06
4.47487e-08
6.39836e-06
5.09197e-08
6.40484e-06
5.32908e-08
6.41095e-06
5.34931e-08
6.41661e-06
5.21295e-08
6.42184e-06
4.97318e-08
6.42667e-06
4.67322e-08
6.43111e-06
4.33831e-08
6.43515e-06
3.98542e-08
6.43884e-06
3.63225e-08
6.44222e-06
3.28852e-08
6.44533e-06
2.95825e-08
6.44818e-06
2.64277e-08
6.45078e-06
2.34111e-08
6.45311e-06
2.05382e-08
1.7849e-08
6.45519e-06
5.74239e-06
1.00658e-08
5.74671e-06
2.75302e-08
5.75223e-06
3.92425e-08
5.75786e-06
4.52954e-08
5.76334e-06
4.78183e-08
5.76858e-06
4.82487e-08
5.77351e-06
4.71999e-08
5.7781e-06
4.51396e-08
5.78236e-06
4.24716e-08
5.78629e-06
3.94494e-08
5.78988e-06
3.62479e-08
5.79318e-06
3.30254e-08
5.7962e-06
2.98591e-08
5.79897e-06
2.68094e-08
5.8015e-06
2.38828e-08
5.80381e-06
2.10963e-08
5.80589e-06
1.84516e-08
1.59914e-08
5.80775e-06
6.99976e-06
8.46377e-09
7.00423e-06
2.30833e-08
7.01012e-06
3.33577e-08
7.01636e-06
3.90665e-08
7.02257e-06
4.16102e-08
7.02861e-06
4.22082e-08
7.03436e-06
4.14471e-08
7.03976e-06
3.97336e-08
7.0448e-06
3.74281e-08
7.04947e-06
3.4771e-08
7.05378e-06
3.19414e-08
7.05774e-06
2.90591e-08
7.06138e-06
2.62196e-08
7.06472e-06
2.34612e-08
7.06778e-06
2.08197e-08
7.07056e-06
1.83017e-08
7.07309e-06
1.59305e-08
1.37246e-08
7.07535e-06
8.53249e-06
6.8238e-09
8.53702e-06
1.85651e-08
8.5432e-06
2.7187e-08
8.54999e-06
3.22844e-08
8.5569e-06
3.46952e-08
8.56374e-06
3.53681e-08
8.57034e-06
3.4845e-08
8.57661e-06
3.34631e-08
8.5825e-06
3.1532e-08
8.588e-06
2.927e-08
8.5931e-06
2.68372e-08
8.59782e-06
2.4342e-08
8.60217e-06
2.18662e-08
8.60618e-06
1.94538e-08
8.60985e-06
1.71405e-08
8.61321e-06
1.49442e-08
8.61625e-06
1.28777e-08
1.09724e-08
8.61901e-06
1.04009e-05
5.15745e-09
1.04054e-05
1.40458e-08
1.04118e-05
2.08022e-08
1.04191e-05
2.50128e-08
1.04267e-05
2.7095e-08
1.04343e-05
2.77355e-08
1.04418e-05
2.7369e-08
1.0449e-05
2.6287e-08
1.04558e-05
2.47211e-08
1.04622e-05
2.28703e-08
1.04682e-05
2.08543e-08
1.04737e-05
1.87846e-08
1.04789e-05
1.67107e-08
1.04836e-05
1.46967e-08
1.0488e-05
1.27585e-08
1.0492e-05
1.09294e-08
1.04957e-05
9.21127e-09
7.6366e-09
1.0499e-05
1.26785e-05
3.48577e-09
1.2683e-05
9.51444e-09
1.26896e-05
1.42421e-08
1.26973e-05
1.72811e-08
1.27056e-05
1.88258e-08
1.2714e-05
1.92806e-08
1.27224e-05
1.89824e-08
1.27306e-05
1.81348e-08
1.27384e-05
1.69197e-08
1.27458e-05
1.54704e-08
1.27527e-05
1.39012e-08
1.27592e-05
1.2275e-08
1.27653e-05
1.06588e-08
1.27709e-05
9.07912e-09
1.27761e-05
7.57445e-09
1.27808e-05
6.15177e-09
1.27852e-05
4.83163e-09
3.62552e-09
1.27892e-05
1.54549e-05
1.79595e-09
1.54595e-05
4.9092e-09
1.54663e-05
7.42742e-09
1.54746e-05
9.04042e-09
1.54836e-05
9.81129e-09
1.54929e-05
9.92185e-09
1.55023e-05
9.57437e-09
1.55116e-05
8.89395e-09
1.55205e-05
7.98767e-09
1.55291e-05
6.94258e-09
1.55371e-05
5.82484e-09
1.55447e-05
4.68411e-09
1.55518e-05
3.55589e-09
1.55584e-05
2.46771e-09
1.55645e-05
1.43667e-09
1.55702e-05
4.7708e-10
1.55754e-05
-4.04811e-10
-1.19398e-09
1.55802e-05
1.88394e-05
3.30037e-11
1.88443e-05
7.93301e-12
1.88517e-05
8.34777e-11
1.88607e-05
1.62297e-11
1.88707e-05
-2.12523e-10
1.88813e-05
-6.08835e-10
1.88919e-05
-1.11273e-09
1.89025e-05
-1.69164e-09
1.89128e-05
-2.31489e-09
1.89227e-05
-2.95676e-09
1.89321e-05
-3.59659e-09
1.8941e-05
-4.21743e-09
1.89494e-05
-4.8066e-09
1.89572e-05
-5.3539e-09
1.89645e-05
-5.85219e-09
1.89713e-05
-6.29594e-09
1.89775e-05
-6.68122e-09
-7.003e-09
1.89833e-05
2.29654e-05
-1.98779e-09
2.29711e-05
-5.69936e-09
2.29797e-05
-8.4978e-09
2.29902e-05
-1.05342e-08
2.3002e-05
-1.19589e-08
2.30144e-05
-1.29852e-08
2.30269e-05
-1.37026e-08
2.30395e-05
-1.41945e-08
2.30516e-05
-1.45089e-08
2.30634e-05
-1.47023e-08
2.30746e-05
-1.48e-08
2.30852e-05
-1.48306e-08
2.30952e-05
-1.4805e-08
2.31046e-05
-1.47366e-08
2.31133e-05
-1.46289e-08
2.31215e-05
-1.44868e-08
2.31291e-05
-1.43101e-08
-1.41037e-08
2.31362e-05
1.68124e-05
-3.6635e-09
1.6817e-05
-1.0357e-08
1.68239e-05
-1.53576e-08
1.68322e-05
-1.87663e-08
1.68412e-05
-2.09794e-08
1.68506e-05
-2.23787e-08
1.68601e-05
-2.31898e-08
1.68694e-05
-2.35418e-08
1.68785e-05
-2.35857e-08
1.68872e-05
-2.34027e-08
1.68955e-05
-2.30794e-08
1.69033e-05
-2.26527e-08
1.69106e-05
-2.21695e-08
1.69175e-05
-2.16438e-08
1.6924e-05
-2.10959e-08
1.693e-05
-2.05279e-08
1.69357e-05
-1.99466e-08
-1.93582e-08
1.69409e-05
1.46364e-05
-5.44522e-09
1.46412e-05
-1.52263e-08
1.46481e-05
-2.22706e-08
1.46562e-05
-2.67747e-08
1.46647e-05
-2.95354e-08
1.46735e-05
-3.11641e-08
1.46823e-05
-3.19329e-08
1.46908e-05
-3.20774e-08
1.4699e-05
-3.17881e-08
1.47068e-05
-3.12218e-08
1.47142e-05
-3.0468e-08
1.47211e-05
-2.96092e-08
1.47277e-05
-2.86922e-08
1.47338e-05
-2.77546e-08
1.47395e-05
-2.6808e-08
1.47448e-05
-2.5866e-08
1.47498e-05
-2.49282e-08
-2.40092e-08
1.47544e-05
1.27422e-05
-7.49722e-09
1.27476e-05
-2.06177e-08
1.27548e-05
-2.94878e-08
1.27628e-05
-3.47485e-08
1.27711e-05
-3.78387e-08
1.27795e-05
-3.95337e-08
1.27877e-05
-4.01368e-08
1.27956e-05
-3.99666e-08
1.28031e-05
-3.93043e-08
1.28102e-05
-3.83142e-08
1.28168e-05
-3.71202e-08
1.2823e-05
-3.58229e-08
1.28288e-05
-3.44908e-08
1.28342e-05
-3.3161e-08
1.28393e-05
-3.18477e-08
1.2844e-05
-3.05645e-08
1.28483e-05
-2.93091e-08
-2.81002e-08
1.28524e-05
1.10934e-05
-1.0003e-08
1.10996e-05
-2.68008e-08
1.11073e-05
-3.71277e-08
1.11153e-05
-4.27428e-08
1.11234e-05
-4.59669e-08
1.11315e-05
-4.75851e-08
1.11392e-05
-4.78729e-08
1.11465e-05
-4.72953e-08
1.11534e-05
-4.62077e-08
1.11599e-05
-4.47551e-08
1.11659e-05
-4.30969e-08
1.11714e-05
-4.13567e-08
1.11765e-05
-3.96154e-08
1.11812e-05
-3.79072e-08
1.11856e-05
-3.62522e-08
1.11897e-05
-3.46574e-08
1.11935e-05
-3.31101e-08
-3.16324e-08
1.11971e-05
9.65839e-06
-1.31811e-08
9.66564e-06
-3.40356e-08
9.67366e-06
-4.51295e-08
9.68166e-06
-5.07363e-08
9.68966e-06
-5.3959e-08
9.69747e-06
-5.54015e-08
9.70483e-06
-5.52198e-08
9.71163e-06
-5.40971e-08
9.71795e-06
-5.25197e-08
9.72376e-06
-5.05706e-08
9.72912e-06
-4.8455e-08
9.73405e-06
-4.62936e-08
9.73859e-06
-4.41547e-08
9.74277e-06
-4.2091e-08
9.74663e-06
-4.01172e-08
9.75022e-06
-3.82468e-08
9.75357e-06
-3.64651e-08
-3.48199e-08
9.75676e-06
8.40946e-06
-1.72829e-08
8.41802e-06
-4.25891e-08
8.42633e-06
-5.34513e-08
8.43432e-06
-5.87143e-08
8.4422e-06
-6.18391e-08
8.44978e-06
-6.2976e-08
8.4569e-06
-6.23369e-08
8.4634e-06
-6.05951e-08
8.46927e-06
-5.83854e-08
8.47456e-06
-5.58552e-08
8.47938e-06
-5.32809e-08
8.4838e-06
-5.07112e-08
8.48782e-06
-4.81847e-08
8.49148e-06
-4.5749e-08
8.49482e-06
-4.34607e-08
8.4979e-06
-4.13333e-08
8.50078e-06
-3.93371e-08
-3.75305e-08
8.50348e-06
7.32273e-06
-2.27258e-08
7.33277e-06
-5.26323e-08
7.34148e-06
-6.21452e-08
7.34966e-06
-6.69012e-08
7.35768e-06
-6.98559e-08
7.3651e-06
-7.03988e-08
7.37205e-06
-6.929e-08
7.37858e-06
-6.71227e-08
7.38432e-06
-6.41219e-08
7.38941e-06
-6.09432e-08
7.39399e-06
-5.78593e-08
7.39808e-06
-5.4805e-08
7.40173e-06
-5.18314e-08
7.40501e-06
-4.90262e-08
7.40796e-06
-4.64185e-08
7.41066e-06
-4.40305e-08
7.41319e-06
-4.18632e-08
-3.98626e-08
7.41552e-06
6.37806e-06
-3.07245e-08
6.38974e-06
-6.43157e-08
6.39956e-06
-7.19661e-08
6.40889e-06
-7.62378e-08
6.41791e-06
-7.88742e-08
6.42613e-06
-7.86148e-08
6.43349e-06
-7.66535e-08
6.44031e-06
-7.39429e-08
6.44627e-06
-7.00828e-08
6.45167e-06
-6.63367e-08
6.45649e-06
-6.26861e-08
6.46075e-06
-5.90642e-08
6.46453e-06
-5.56081e-08
6.46791e-06
-5.24114e-08
6.47101e-06
-4.95179e-08
6.47393e-06
-4.69497e-08
6.47673e-06
-4.46635e-08
-4.2497e-08
6.47939e-06
5.56075e-06
-4.60157e-08
5.57666e-06
-8.02342e-08
5.59119e-06
-8.65053e-08
5.60512e-06
-9.01761e-08
5.61791e-06
-9.16638e-08
5.62916e-06
-8.9869e-08
5.63868e-06
-8.61774e-08
5.6467e-06
-8.19723e-08
5.6534e-06
-7.67815e-08
5.65902e-06
-7.19548e-08
5.66371e-06
-6.73726e-08
5.66752e-06
-6.28792e-08
5.67055e-06
-5.86287e-08
5.67289e-06
-5.47444e-08
5.67458e-06
-5.1213e-08
5.6758e-06
-4.81652e-08
5.6767e-06
-4.555e-08
-4.34977e-08
5.67771e-06
4.87995e-06
-9.83617e-08
4.91448e-06
-1.14779e-07
4.94029e-06
-1.12319e-07
4.95736e-06
-1.07262e-07
4.96597e-06
-1.00284e-07
4.9671e-06
-9.10067e-08
4.96235e-06
-8.14305e-08
4.9532e-06
-7.28254e-08
4.94088e-06
-6.44621e-08
4.92627e-06
-5.73428e-08
4.91007e-06
-5.11727e-08
4.89272e-06
-4.55262e-08
4.87458e-06
-4.04765e-08
4.85598e-06
-3.61444e-08
4.83734e-06
-3.25713e-08
4.81885e-06
-2.96674e-08
4.8008e-06
-2.74937e-08
-2.65822e-08
4.7839e-06
4.10431e-06
3.98953e-06
3.87721e-06
3.76995e-06
3.66967e-06
3.57866e-06
3.49723e-06
3.4244e-06
3.35994e-06
3.3026e-06
3.25143e-06
3.2059e-06
3.16543e-06
3.12928e-06
3.09671e-06
3.06705e-06
3.03956e-06
3.01297e-06
-7.75837e-09
7.76245e-09
-2.118e-08
1.34378e-08
-3.58675e-08
1.4695e-08
-4.85337e-08
1.26823e-08
-5.42906e-08
5.75903e-09
-4.73029e-08
-6.97481e-09
-2.54019e-08
-2.19059e-08
9.32417e-09
-3.47154e-08
5.29029e-08
-4.35861e-08
1.00723e-07
-4.78083e-08
1.484e-07
-4.76823e-08
1.9293e-07
-4.45167e-08
2.32275e-07
-3.93498e-08
2.65239e-07
-3.29491e-08
2.91068e-07
-2.58347e-08
3.0939e-07
-1.83066e-08
3.19884e-07
-1.05046e-08
3.22297e-07
-2.39493e-09
3.16347e-07
5.93607e-09
3.02197e-07
1.41664e-08
2.80282e-07
2.18967e-08
2.51535e-07
2.87608e-08
2.17143e-07
3.43642e-08
1.78882e-07
3.82642e-08
1.38852e-07
3.9995e-08
9.96367e-08
3.91964e-08
6.38387e-08
3.57432e-08
3.38125e-08
2.99765e-08
1.09047e-08
2.28349e-08
-4.84265e-09
1.56705e-08
-1.44119e-08
9.49457e-09
-1.86444e-08
4.14839e-09
-1.75615e-08
-1.15036e-09
-1.02645e-08
-7.39429e-09
4.74771e-09
-1.50586e-08
2.85755e-08
-2.39273e-08
5.97381e-08
-3.11831e-08
9.3195e-08
-3.3542e-08
1.23231e-07
-3.00392e-08
1.4532e-07
-2.21552e-08
1.57681e-07
-1.23573e-08
1.61337e-07
-3.699e-09
1.59661e-07
1.68589e-09
1.56132e-07
3.5089e-09
1.53802e-07
2.36389e-09
1.52845e-07
9.52981e-10
1.469e-07
6.0161e-09
1.27815e-07
1.91034e-08
8.79082e-08
4.00027e-08
2.20628e-08
6.59091e-08
-6.7233e-08
8.93937e-08
-1.74849e-07
1.07679e-07
-2.97196e-07
1.22408e-07
-4.30596e-07
1.33452e-07
-5.71637e-07
1.41084e-07
-7.16861e-07
1.45268e-07
-8.62055e-07
1.45229e-07
-1.00246e-06
1.40443e-07
-1.13574e-06
1.33311e-07
-1.26125e-06
1.25544e-07
-1.37801e-06
1.16784e-07
-1.48579e-06
1.07819e-07
-1.58526e-06
9.94808e-08
-1.67578e-06
9.05421e-08
-1.75844e-06
8.2673e-08
-1.83483e-06
7.6412e-08
-1.90515e-06
7.03182e-08
-1.97024e-06
6.51057e-08
-2.03073e-06
6.049e-08
-2.08718e-06
5.64557e-08
-2.14009e-06
5.29061e-08
-2.18985e-06
4.97616e-08
-2.23682e-06
4.69592e-08
-2.28125e-06
4.44324e-08
-2.3234e-06
4.21325e-08
-2.36343e-06
4.00141e-08
-2.40149e-06
3.80434e-08
-2.43771e-06
3.61907e-08
-2.47216e-06
3.44346e-08
-2.50495e-06
3.27543e-08
-2.5361e-06
3.11372e-08
-2.5657e-06
2.95688e-08
-2.59376e-06
2.80427e-08
-2.62033e-06
2.65482e-08
-2.64543e-06
2.50817e-08
-2.66908e-06
2.36354e-08
-2.69131e-06
2.22062e-08
-2.71211e-06
2.07887e-08
-2.7315e-06
1.9381e-08
-2.74949e-06
1.79773e-08
-2.76608e-06
1.6578e-08
-2.78127e-06
1.51745e-08
-2.79505e-06
1.37647e-08
-2.80741e-06
1.23375e-08
-2.81831e-06
1.08872e-08
-2.82771e-06
9.40285e-09
-2.83559e-06
7.87579e-09
-2.84187e-06
6.29528e-09
-2.8465e-06
4.64773e-09
-2.84939e-06
2.9257e-09
-2.85051e-06
1.15486e-09
-2.84992e-06
-5.38771e-10
-2.84786e-06
-2.02172e-09
-2.84445e-06
-3.35445e-09
-2.83974e-06
-4.66023e-09
-2.83374e-06
-5.95316e-09
-2.82646e-06
-7.24922e-09
-2.81789e-06
-8.54471e-09
-2.80802e-06
-9.84414e-09
-2.79686e-06
-1.11426e-08
-2.78441e-06
-1.24429e-08
-2.77066e-06
-1.37402e-08
-2.75562e-06
-1.50366e-08
-2.73929e-06
-1.63275e-08
-2.72167e-06
-1.7615e-08
-2.70277e-06
-1.88951e-08
-2.6826e-06
-2.017e-08
-2.66116e-06
-2.14365e-08
-2.63847e-06
-2.26957e-08
-2.61452e-06
-2.39443e-08
-2.58933e-06
-2.51827e-08
-2.56291e-06
-2.6408e-08
-2.53528e-06
-2.76214e-08
-2.50645e-06
-2.88193e-08
-2.47643e-06
-3.00034e-08
-2.44524e-06
-3.11692e-08
-2.41291e-06
-3.23186e-08
-2.37945e-06
-3.34461e-08
-2.34489e-06
-3.45546e-08
-2.30923e-06
-3.56405e-08
-2.27252e-06
-3.67021e-08
-2.23477e-06
-3.77387e-08
-2.19601e-06
-3.87507e-08
-2.15629e-06
-3.97199e-08
-2.11565e-06
-4.06484e-08
-2.07414e-06
-4.15146e-08
-2.03185e-06
-4.23207e-08
-1.98884e-06
-4.30416e-08
-1.94512e-06
-4.37819e-08
-1.90058e-06
-4.46016e-08
-1.85528e-06
-4.53733e-08
-1.80931e-06
-4.60492e-08
-1.76272e-06
-4.6667e-08
-1.71557e-06
-4.72327e-08
-1.66789e-06
-4.77468e-08
-1.61975e-06
-4.82136e-08
-1.57118e-06
-4.86304e-08
-1.52223e-06
-4.90019e-08
-1.47295e-06
-4.93265e-08
-1.42338e-06
-4.96093e-08
-1.37356e-06
-4.98493e-08
-1.32353e-06
-5.00516e-08
-1.27332e-06
-5.02155e-08
-1.22297e-06
-5.03446e-08
-1.17251e-06
-5.04375e-08
-1.12198e-06
-5.04973e-08
-1.0714e-06
-5.0526e-08
-1.02081e-06
-5.05303e-08
-9.70212e-07
-5.05165e-08
-9.1962e-07
-5.04925e-08
-8.69044e-07
-5.0468e-08
-8.18462e-07
-5.04506e-08
-7.67874e-07
-5.04495e-08
-7.17244e-07
-5.04672e-08
-6.66568e-07
-5.05097e-08
-6.15802e-07
-5.05729e-08
-5.6495e-07
-5.06611e-08
-5.13963e-07
-5.07703e-08
-4.62847e-07
-5.09062e-08
-4.1155e-07
-5.10633e-08
-3.60082e-07
-5.12448e-08
-3.08409e-07
-5.14276e-08
-2.56583e-07
-5.15947e-08
-2.04628e-07
-5.17044e-08
-1.52738e-07
-5.16598e-08
-1.01279e-07
-5.12152e-08
-5.07618e-08
-5.02993e-08
-2.84132e-09
-4.76931e-08
4.23451e-08
-4.49873e-08
-2.25646e-08
6.50873e-08
-3.41977e-09
1.11933e-08
-9.67646e-09
1.97378e-08
-1.27727e-08
1.78095e-08
-5.82585e-09
5.77347e-09
1.61252e-08
-1.61868e-08
5.2487e-08
-4.3321e-08
9.89358e-08
-6.83582e-08
1.50096e-07
-8.58681e-08
2.00928e-07
-9.44195e-08
2.48212e-07
-9.50848e-08
2.90415e-07
-8.98852e-08
3.2682e-07
-8.09127e-08
3.57264e-07
-6.97937e-08
3.81937e-07
-5.76112e-08
4.01125e-07
-4.50238e-08
4.15222e-07
-3.23917e-08
4.246e-07
-1.98874e-08
4.29813e-07
-7.59682e-09
4.31233e-07
4.5087e-09
4.2887e-07
1.65385e-08
4.22269e-07
2.84876e-08
4.10876e-07
4.01566e-08
3.94069e-07
5.11571e-08
3.7144e-07
6.08888e-08
3.42845e-07
6.85696e-08
3.08705e-07
7.33211e-08
2.70076e-07
7.43417e-08
2.28841e-07
7.11806e-08
1.87699e-07
6.3934e-08
1.5008e-07
5.32383e-08
1.19603e-07
3.99111e-08
9.90899e-08
2.45792e-08
9.03442e-08
7.52567e-09
9.34054e-08
-1.05499e-08
1.07355e-07
-2.90582e-08
1.28682e-07
-4.53362e-08
1.51525e-07
-5.40538e-08
1.69483e-07
-5.15693e-08
1.7916e-07
-3.97322e-08
1.79695e-07
-2.27478e-08
1.71642e-07
-4.30593e-09
1.5666e-07
1.1238e-08
1.35669e-07
2.27121e-08
1.02463e-07
3.66917e-08
4.75048e-08
5.73982e-08
-3.75237e-08
8.60106e-08
-1.52249e-07
1.20806e-07
-2.88912e-07
1.55801e-07
-4.37667e-07
1.88795e-07
-5.91047e-07
2.19318e-07
-7.46363e-07
2.44738e-07
-9.01674e-07
2.63016e-07
-1.05348e-06
2.74235e-07
-1.19834e-06
2.78336e-07
-1.33298e-06
2.75746e-07
-1.45513e-06
2.67444e-07
-1.56431e-06
2.54424e-07
-1.66165e-06
2.37805e-07
-1.74791e-06
2.19595e-07
-1.82388e-06
2.01538e-07
-1.8913e-06
1.8422e-07
-1.95163e-06
1.68162e-07
-2.00576e-06
1.53624e-07
-2.05556e-06
1.40355e-07
-2.10153e-06
1.2866e-07
-2.14381e-06
1.18699e-07
-2.18345e-06
1.0996e-07
-2.22072e-06
1.02384e-07
-2.25599e-06
9.57644e-08
-2.28948e-06
8.99448e-08
-2.32136e-06
8.47841e-08
-2.35175e-06
8.01595e-08
-2.38077e-06
7.59701e-08
-2.40847e-06
7.21289e-08
-2.43492e-06
6.85672e-08
-2.46014e-06
6.52276e-08
-2.48418e-06
6.20655e-08
-2.50705e-06
5.90441e-08
-2.52877e-06
5.6136e-08
-2.54935e-06
5.33171e-08
-2.5688e-06
5.05709e-08
-2.58713e-06
4.78816e-08
-2.60434e-06
4.52393e-08
-2.62044e-06
4.26331e-08
-2.63543e-06
4.00566e-08
-2.64931e-06
3.75018e-08
-2.66208e-06
3.49641e-08
-2.67374e-06
3.2438e-08
-2.68429e-06
2.99184e-08
-2.69372e-06
2.74036e-08
-2.70204e-06
2.48887e-08
-2.70925e-06
2.23703e-08
-2.71534e-06
1.98441e-08
-2.72032e-06
1.73028e-08
-2.72418e-06
1.47431e-08
-2.72694e-06
1.21609e-08
-2.72862e-06
9.55618e-09
-2.72924e-06
6.93079e-09
-2.72887e-06
4.29335e-09
-2.72759e-06
1.66558e-09
-2.72548e-06
-9.18763e-10
-2.72254e-06
-3.4484e-09
-2.71855e-06
-5.96783e-09
-2.71336e-06
-8.50453e-09
-2.70694e-06
-1.10492e-08
-2.69926e-06
-1.35996e-08
-2.69033e-06
-1.6158e-08
-2.68013e-06
-1.87223e-08
-2.66867e-06
-2.12918e-08
-2.65593e-06
-2.38635e-08
-2.64193e-06
-2.64358e-08
-2.62666e-06
-2.90056e-08
-2.61012e-06
-3.15706e-08
-2.59232e-06
-3.41278e-08
-2.57326e-06
-3.66752e-08
-2.55294e-06
-3.92104e-08
-2.53138e-06
-4.17322e-08
-2.50857e-06
-4.42386e-08
-2.48454e-06
-4.67281e-08
-2.45929e-06
-4.91979e-08
-2.43282e-06
-5.1646e-08
-2.40515e-06
-5.40699e-08
-2.37629e-06
-5.64681e-08
-2.34626e-06
-5.88378e-08
-2.31508e-06
-6.11769e-08
-2.28276e-06
-6.3482e-08
-2.24931e-06
-6.57507e-08
-2.21477e-06
-6.79796e-08
-2.17915e-06
-7.01671e-08
-2.14247e-06
-7.23101e-08
-2.10476e-06
-7.44051e-08
-2.06604e-06
-7.64472e-08
-2.02636e-06
-7.84319e-08
-1.98573e-06
-8.03475e-08
-1.94419e-06
-8.21892e-08
-1.90176e-06
-8.39546e-08
-1.85845e-06
-8.56435e-08
-1.81427e-06
-8.72507e-08
-1.76928e-06
-8.88172e-08
-1.72357e-06
-9.03567e-08
-1.67719e-06
-9.18053e-08
-1.63016e-06
-9.31371e-08
-1.58251e-06
-9.43613e-08
-1.53431e-06
-9.54855e-08
-1.4856e-06
-9.65099e-08
-1.43642e-06
-9.74394e-08
-1.38682e-06
-9.82724e-08
-1.33684e-06
-9.90137e-08
-1.28654e-06
-9.96645e-08
-1.23594e-06
-1.0023e-07
-1.1851e-06
-1.00714e-07
-1.13404e-06
-1.01122e-07
-1.0828e-06
-1.01459e-07
-1.03141e-06
-1.01726e-07
-9.79909e-07
-1.01927e-07
-9.28316e-07
-1.02062e-07
-8.76666e-07
-1.02142e-07
-8.24976e-07
-1.0217e-07
-7.73268e-07
-1.02168e-07
-7.21543e-07
-1.02145e-07
-6.69805e-07
-1.02126e-07
-6.18039e-07
-1.0212e-07
-5.66236e-07
-1.02152e-07
-5.14362e-07
-1.02222e-07
-4.62403e-07
-1.02346e-07
-4.10322e-07
-1.02514e-07
-3.58106e-07
-1.02737e-07
-3.05714e-07
-1.03005e-07
-2.53134e-07
-1.03332e-07
-2.00325e-07
-1.03705e-07
-1.47273e-07
-1.04133e-07
-9.39506e-08
-1.04575e-07
-4.03933e-08
-1.04985e-07
1.33246e-08
-1.05248e-07
6.70548e-08
-1.05228e-07
1.20629e-07
-1.04627e-07
1.73544e-07
-1.03067e-07
2.25496e-07
-9.95011e-08
2.73136e-07
-9.24966e-08
-6.89984e-08
3.19689e-07
3.60887e-10
1.08468e-08
3.47426e-09
1.6669e-08
1.75316e-08
3.77276e-09
5.00605e-08
-2.67342e-08
9.96238e-08
-6.57462e-08
1.57063e-07
-1.00752e-07
2.12784e-07
-1.24077e-07
2.61251e-07
-1.34328e-07
3.00695e-07
-1.33862e-07
3.31697e-07
-1.26077e-07
3.55733e-07
-1.13919e-07
3.74299e-07
-9.94693e-08
3.88539e-07
-8.40306e-08
3.99275e-07
-6.83369e-08
4.07028e-07
-5.27752e-08
4.1218e-07
-3.75342e-08
4.14989e-07
-2.26974e-08
4.15708e-07
-8.30581e-09
4.14589e-07
5.62462e-09
4.12001e-07
1.91317e-08
4.08206e-07
3.2277e-08
4.033e-07
4.50649e-08
3.97049e-07
5.73972e-08
3.88934e-07
6.90018e-08
3.78114e-07
7.93763e-08
3.63662e-07
8.77632e-08
3.4481e-07
9.31758e-08
3.21445e-07
9.45286e-08
2.94451e-07
9.09068e-08
2.65881e-07
8.17816e-08
2.38601e-07
6.71642e-08
2.15532e-07
4.76116e-08
1.98791e-07
2.42318e-08
1.89533e-07
-1.3451e-09
1.85836e-07
-2.53938e-08
1.8145e-07
-4.10018e-08
1.69979e-07
-4.26086e-08
1.49492e-07
-3.11271e-08
1.20789e-07
-1.1042e-08
8.40821e-08
1.39173e-08
3.68678e-08
4.29147e-08
-2.70783e-08
7.5171e-08
-1.14104e-07
1.09758e-07
-2.25432e-07
1.48032e-07
-3.57606e-07
1.89593e-07
-5.03602e-07
2.32023e-07
-6.54885e-07
2.72108e-07
-8.06126e-07
3.07058e-07
-9.52418e-07
3.35104e-07
-1.08866e-06
3.55579e-07
-1.21197e-06
3.68058e-07
-1.32139e-06
3.72449e-07
-1.41645e-06
3.6931e-07
-1.49771e-06
3.59612e-07
-1.56669e-06
3.44739e-07
-1.62545e-06
3.2622e-07
-1.67641e-06
3.05398e-07
-1.72206e-06
2.83473e-07
-1.76413e-06
2.61682e-07
-1.80354e-06
2.40964e-07
-1.84106e-06
2.21747e-07
-1.87716e-06
2.04276e-07
-1.91209e-06
1.88564e-07
-1.94625e-06
1.74526e-07
-1.9797e-06
1.62121e-07
-2.01224e-06
1.51241e-07
-2.04393e-06
1.41654e-07
-2.07473e-06
1.33188e-07
-2.10463e-06
1.25665e-07
-2.1336e-06
1.18925e-07
-2.16165e-06
1.12828e-07
-2.18875e-06
1.07257e-07
-2.21489e-06
1.02111e-07
-2.24007e-06
9.73052e-08
-2.26428e-06
9.27717e-08
-2.28752e-06
8.84539e-08
-2.30977e-06
8.43076e-08
-2.33103e-06
8.02966e-08
-2.3513e-06
7.63931e-08
-2.37057e-06
7.25745e-08
-2.38884e-06
6.88237e-08
-2.4061e-06
6.51265e-08
-2.42234e-06
6.14721e-08
-2.43757e-06
5.78511e-08
-2.45178e-06
5.42564e-08
-2.46497e-06
5.06813e-08
-2.47714e-06
4.71205e-08
-2.48828e-06
4.35691e-08
-2.49838e-06
4.00221e-08
-2.50746e-06
3.6476e-08
-2.51551e-06
3.2928e-08
-2.52252e-06
2.93753e-08
-2.5285e-06
2.58122e-08
-2.53344e-06
2.22353e-08
-2.53734e-06
1.86406e-08
-2.5402e-06
1.50271e-08
-2.54204e-06
1.13962e-08
-2.54285e-06
7.75079e-09
-2.54264e-06
4.09878e-09
-2.5414e-06
4.48931e-10
-2.5391e-06
-3.19169e-09
-2.53569e-06
-6.83808e-09
-2.53111e-06
-1.05157e-08
-2.52536e-06
-1.42326e-08
-2.5184e-06
-1.79752e-08
-2.51024e-06
-2.17388e-08
-2.50087e-06
-2.5518e-08
-2.49027e-06
-2.93103e-08
-2.47844e-06
-3.31109e-08
-2.46538e-06
-3.6917e-08
-2.45108e-06
-4.07238e-08
-2.43556e-06
-4.45284e-08
-2.4188e-06
-4.83256e-08
-2.40082e-06
-5.21124e-08
-2.3816e-06
-5.58841e-08
-2.36118e-06
-5.96383e-08
-2.33954e-06
-6.33715e-08
-2.31669e-06
-6.7082e-08
-2.29265e-06
-7.07664e-08
-2.26743e-06
-7.44222e-08
-2.24103e-06
-7.8046e-08
-2.21346e-06
-8.16352e-08
-2.18473e-06
-8.5186e-08
-2.15487e-06
-8.86958e-08
-2.12388e-06
-9.21598e-08
-2.09178e-06
-9.55741e-08
-2.05859e-06
-9.89338e-08
-2.02432e-06
-1.02235e-07
-1.98901e-06
-1.05474e-07
-1.95267e-06
-1.08647e-07
-1.91532e-06
-1.11749e-07
-1.87698e-06
-1.14774e-07
-1.8377e-06
-1.17714e-07
-1.79748e-06
-1.20559e-07
-1.75637e-06
-1.23301e-07
-1.71439e-06
-1.25941e-07
-1.67157e-06
-1.28477e-07
-1.62794e-06
-1.30905e-07
-1.58354e-06
-1.33241e-07
-1.53845e-06
-1.35481e-07
-1.49269e-06
-1.37592e-07
-1.4463e-06
-1.39554e-07
-1.39932e-06
-1.41369e-07
-1.3518e-06
-1.43038e-07
-1.30376e-06
-1.44564e-07
-1.25527e-06
-1.45948e-07
-1.20637e-06
-1.47192e-07
-1.1571e-06
-1.483e-07
-1.1075e-06
-1.49276e-07
-1.05762e-06
-1.50125e-07
-1.00748e-06
-1.50856e-07
-9.57129e-07
-1.51475e-07
-9.06595e-07
-1.51991e-07
-8.55906e-07
-1.5241e-07
-8.0509e-07
-1.52735e-07
-7.54175e-07
-1.52968e-07
-7.03183e-07
-1.53119e-07
-6.52136e-07
-1.53201e-07
-6.01047e-07
-1.53238e-07
-5.4992e-07
-1.53251e-07
-4.98753e-07
-1.53269e-07
-4.47536e-07
-1.53313e-07
-3.96249e-07
-1.53411e-07
-3.44869e-07
-1.53574e-07
-2.93368e-07
-1.53817e-07
-2.41718e-07
-1.54135e-07
-1.89892e-07
-1.54532e-07
-1.37862e-07
-1.55006e-07
-8.55984e-08
-1.55565e-07
-3.30745e-08
-1.56201e-07
1.9725e-08
-1.56906e-07
7.28202e-08
-1.57646e-07
1.26221e-07
-1.58363e-07
1.79914e-07
-1.5892e-07
2.33812e-07
-1.59107e-07
2.87756e-07
-1.58553e-07
3.4143e-07
-1.56725e-07
3.94513e-07
-1.52568e-07
4.46079e-07
-1.44048e-07
-1.2223e-07
4.99321e-07
-9.69888e-11
1.09618e-08
1.212e-08
4.49645e-09
5.07668e-08
-3.48554e-08
1.1129e-07
-8.72442e-08
1.77099e-07
-1.31547e-07
2.34322e-07
-1.57965e-07
2.77214e-07
-1.66963e-07
3.06434e-07
-1.63538e-07
3.25363e-07
-1.52785e-07
3.37563e-07
-1.38266e-07
3.45665e-07
-1.22015e-07
3.51283e-07
-1.05077e-07
3.55235e-07
-8.79775e-08
3.57897e-07
-7.09873e-08
3.59382e-07
-5.42568e-08
3.5974e-07
-3.78821e-08
3.58976e-07
-2.19315e-08
3.5714e-07
-6.46083e-09
3.54285e-07
8.47811e-09
3.5056e-07
2.2864e-08
3.46151e-07
3.66818e-08
3.41312e-07
4.9907e-08
3.36215e-07
6.24878e-08
3.30925e-07
7.42923e-08
3.25235e-07
8.50571e-08
3.18687e-07
9.43083e-08
3.1055e-07
1.01303e-07
3.00053e-07
1.0502e-07
2.86673e-07
1.04277e-07
2.70451e-07
9.79925e-08
2.5212e-07
8.54835e-08
2.33035e-07
6.66722e-08
2.14485e-07
4.27611e-08
1.95545e-07
1.75551e-08
1.70718e-07
-5.91938e-10
1.34469e-07
-4.79636e-09
8.64807e-08
5.36438e-09
2.76869e-08
2.76284e-08
-4.35339e-08
6.01703e-08
-1.3008e-07
1.00448e-07
-2.32828e-07
1.45666e-07
-3.50811e-07
1.93157e-07
-4.81828e-07
2.40785e-07
-6.20717e-07
2.86931e-07
-7.61123e-07
3.30011e-07
-8.96973e-07
3.67883e-07
-1.02291e-06
3.98056e-07
-1.13543e-06
4.19589e-07
-1.23305e-06
4.32732e-07
-1.31524e-06
4.37782e-07
-1.38271e-06
4.35542e-07
-1.43728e-06
4.27032e-07
-1.48133e-06
4.13364e-07
-1.51751e-06
3.95801e-07
-1.54837e-06
3.75614e-07
-1.57609e-06
3.53948e-07
-1.60239e-06
3.31713e-07
-1.62856e-06
3.0965e-07
-1.65525e-06
2.88387e-07
-1.68266e-06
2.68382e-07
-1.71077e-06
2.49867e-07
-1.73944e-06
2.32957e-07
-1.76849e-06
2.17619e-07
-1.79775e-06
2.03793e-07
-1.82702e-06
1.914e-07
-1.85609e-06
1.8031e-07
-1.88479e-06
1.70363e-07
-1.91301e-06
1.61408e-07
-1.94064e-06
1.53295e-07
-1.9676e-06
1.45889e-07
-1.99384e-06
1.39066e-07
-2.01931e-06
1.32722e-07
-2.04396e-06
1.26765e-07
-2.06778e-06
1.21119e-07
-2.09073e-06
1.15718e-07
-2.1128e-06
1.10513e-07
-2.13396e-06
1.05461e-07
-2.1542e-06
1.0053e-07
-2.17351e-06
9.56931e-08
-2.19188e-06
9.0931e-08
-2.20929e-06
8.62279e-08
-2.22574e-06
8.15712e-08
-2.24123e-06
7.69512e-08
-2.25575e-06
7.23598e-08
-2.26929e-06
6.77907e-08
-2.28186e-06
6.32379e-08
-2.29344e-06
5.86969e-08
-2.30404e-06
5.41624e-08
-2.31365e-06
4.96297e-08
-2.32228e-06
4.50963e-08
-2.32991e-06
4.05555e-08
-2.33654e-06
3.60069e-08
-2.34218e-06
3.14438e-08
-2.34681e-06
2.68631e-08
-2.35043e-06
2.22598e-08
-2.35304e-06
1.76326e-08
-2.35461e-06
1.29807e-08
-2.35516e-06
8.30491e-09
-2.35465e-06
3.60846e-09
-2.35308e-06
-1.10793e-09
-2.3504e-06
-5.84556e-09
-2.3466e-06
-1.06178e-08
-2.34166e-06
-1.5436e-08
-2.33557e-06
-2.03024e-08
-2.32832e-06
-2.52066e-08
-2.3199e-06
-3.01423e-08
-2.31031e-06
-3.5102e-08
-2.29953e-06
-4.00809e-08
-2.28756e-06
-4.50725e-08
-2.2744e-06
-5.00725e-08
-2.26004e-06
-5.50747e-08
-2.2445e-06
-6.00746e-08
-2.22775e-06
-6.50658e-08
-2.20982e-06
-7.00435e-08
-2.1907e-06
-7.50018e-08
-2.1704e-06
-7.99368e-08
-2.14893e-06
-8.48438e-08
-2.12629e-06
-8.97203e-08
-2.1025e-06