/*--------------------------------*- C++ -*----------------------------------*\
  =========                 |
  \\      /  F ield         | OpenFOAM: The Open Source CFD Toolbox
   \\    /   O peration     | Website:  https://openfoam.org
    \\  /    A nd           | Version:  13
     \\/     M anipulation  |
\*---------------------------------------------------------------------------*/
FoamFile
{
    format      ascii;
    class       volVectorField;
    location    "900";
    object      U;
}
// * * * * * * * * * * * * * * * * * * * * * * * * * * * * * * * * * * * * * //

dimensions      [0 1 -1 0 0 0 0];

internalField   nonuniform List<vector> 
12225
(
(9.75819 0.0533818 0)
(9.27847 0.107286 0)
(8.80799 0.110286 0)
(8.37024 0.0917232 0)
(7.99085 0.0880911 0)
(7.65069 0.0842208 0)
(7.3728 0.0592355 0)
(7.14137 0.0459093 0)
(6.93372 0.037962 0)
(6.76053 0.028265 0)
(6.61517 0.0141113 0)
(6.49946 0.0101326 0)
(6.41122 0.00910272 0)
(6.34068 0.00207845 0)
(6.29027 -0.0014537 0)
(6.25216 -0.00455993 0)
(6.23273 -0.0104148 0)
(6.21974 -0.00383965 0)
(10.0966 0.0574035 0)
(10.2956 0.0920427 0)
(10.4064 0.0937357 0)
(10.4464 0.0953189 0)
(10.4566 0.0929748 0)
(10.4129 0.0872831 0)
(10.3548 0.0839009 0)
(10.2744 0.0792562 0)
(10.1909 0.0735303 0)
(10.0977 0.0681628 0)
(10.007 0.0641444 0)
(9.91834 0.0565755 0)
(9.82598 0.048515 0)
(9.73533 0.0431807 0)
(9.64484 0.0374358 0)
(9.55549 0.0321439 0)
(9.469 0.0278556 0)
(9.39272 0.0231291 0)
(10.0152 0.0430808 0)
(10.0695 0.0706492 0)
(10.1213 0.0723989 0)
(10.167 0.0734893 0)
(10.2127 0.0780754 0)
(10.2582 0.0810665 0)
(10.2983 0.0797415 0)
(10.3302 0.0798467 0)
(10.3562 0.0800324 0)
(10.3752 0.0779391 0)
(10.3873 0.0731631 0)
(10.3924 0.0688898 0)
(10.3929 0.0657055 0)
(10.389 0.0622386 0)
(10.381 0.0593992 0)
(10.37 0.0566733 0)
(10.3553 0.0528654 0)
(10.3398 0.0482604 0)
(10.008 0.0301916 0)
(10.0364 0.0567892 0)
(10.064 0.0659945 0)
(10.0819 0.069371 0)
(10.0978 0.0729152 0)
(10.1146 0.0734385 0)
(10.1312 0.0709087 0)
(10.1467 0.0691591 0)
(10.1623 0.0673898 0)
(10.1781 0.0647077 0)
(10.1925 0.0606867 0)
(10.2051 0.0569436 0)
(10.2166 0.0539269 0)
(10.2274 0.0513304 0)
(10.2377 0.0492964 0)
(10.248 0.0472888 0)
(10.2576 0.0445052 0)
(10.2677 0.0416077 0)
(10.0051 0.0253892 0)
(10.0299 0.0538848 0)
(10.0527 0.0641229 0)
(10.0691 0.0665357 0)
(10.0822 0.0692007 0)
(10.0947 0.0701124 0)
(10.1061 0.0684672 0)
(10.1157 0.066825 0)
(10.1247 0.0652814 0)
(10.1337 0.0630476 0)
(10.1417 0.0598348 0)
(10.1486 0.0566219 0)
(10.1548 0.0537849 0)
(10.1606 0.0511358 0)
(10.1665 0.0487161 0)
(10.1726 0.0463171 0)
(10.1787 0.0433397 0)
(10.1854 0.0401145 0)
(10.001 0.0203749 0)
(10.0258 0.05017 0)
(10.0488 0.0600681 0)
(10.0596 0.0633887 0)
(10.0701 0.065523 0)
(10.082 0.0661187 0)
(10.0928 0.0650203 0)
(10.1022 0.0635197 0)
(10.1109 0.06192 0)
(10.1192 0.0595438 0)
(10.1265 0.0563785 0)
(10.1328 0.0531956 0)
(10.1384 0.0502603 0)
(10.1437 0.0474877 0)
(10.1487 0.0448773 0)
(10.1538 0.0422383 0)
(10.1587 0.0391348 0)
(10.1636 0.0357638 0)
(10.0008 0.0158794 0)
(10.0187 0.0403272 0)
(10.0372 0.0525592 0)
(10.0526 0.0575608 0)
(10.065 0.0599012 0)
(10.0759 0.0612419 0)
(10.0862 0.0607644 0)
(10.0953 0.0595696 0)
(10.1036 0.0580063 0)
(10.1114 0.0558208 0)
(10.1184 0.0530993 0)
(10.1245 0.0503418 0)
(10.13 0.0477138 0)
(10.1351 0.0451495 0)
(10.1399 0.0426206 0)
(10.1446 0.0399705 0)
(10.149 0.036945 0)
(10.1532 0.0336698 0)
(10.0015 0.0131426 0)
(10.0135 0.034949 0)
(10.0295 0.0478007 0)
(10.0452 0.0534573 0)
(10.0576 0.0562327 0)
(10.0684 0.0574326 0)
(10.0786 0.0571879 0)
(10.0876 0.0561739 0)
(10.0958 0.0547302 0)
(10.1034 0.0527647 0)
(10.1103 0.0503239 0)
(10.1164 0.0477499 0)
(10.1219 0.0451762 0)
(10.127 0.0425915 0)
(10.1317 0.0399865 0)
(10.1363 0.0372609 0)
(10.1404 0.0342812 0)
(10.1442 0.0311515 0)
(10.0015 0.0111846 0)
(10.01 0.0308549 0)
(10.0241 0.0428257 0)
(10.0387 0.0484006 0)
(10.0505 0.0513174 0)
(10.061 0.0528488 0)
(10.0709 0.0530015 0)
(10.0799 0.0522856 0)
(10.0881 0.0510339 0)
(10.0956 0.0492474 0)
(10.1024 0.0470285 0)
(10.1086 0.0446369 0)
(10.1141 0.0421694 0)
(10.1192 0.039679 0)
(10.1239 0.0371562 0)
(10.1283 0.0345326 0)
(10.1324 0.0317261 0)
(10.136 0.0288362 0)
(10.0012 0.00947781 0)
(10.0077 0.0268183 0)
(10.0201 0.0378922 0)
(10.0333 0.043635 0)
(10.0444 0.0467803 0)
(10.0546 0.0484427 0)
(10.0642 0.0488035 0)
(10.073 0.0482781 0)
(10.081 0.0471527 0)
(10.0885 0.0455306 0)
(10.0952 0.0435162 0)
(10.1013 0.0413056 0)
(10.1069 0.039001 0)
(10.112 0.0366523 0)
(10.1167 0.0342449 0)
(10.121 0.0317385 0)
(10.1249 0.0291086 0)
(10.1285 0.0264273 0)
(10.0008 0.00801567 0)
(10.0062 0.022771 0)
(10.0168 0.0329788 0)
(10.0285 0.0387466 0)
(10.039 0.04202 0)
(10.0488 0.0437939 0)
(10.058 0.0443364 0)
(10.0666 0.043983 0)
(10.0745 0.0430057 0)
(10.0818 0.0415625 0)
(10.0884 0.039753 0)
(10.0945 0.0377432 0)
(10.1 0.0356169 0)
(10.1051 0.0334118 0)
(10.1097 0.031137 0)
(10.114 0.0287782 0)
(10.1179 0.026333 0)
(10.1213 0.0238635 0)
(10.0006 0.00684616 0)
(10.0052 0.019432 0)
(10.0142 0.0286796 0)
(10.0246 0.0342929 0)
(10.0345 0.0375778 0)
(10.0438 0.0393996 0)
(10.0526 0.0400745 0)
(10.061 0.0398688 0)
(10.0687 0.0390484 0)
(10.0758 0.037767 0)
(10.0824 0.0361432 0)
(10.0884 0.0343037 0)
(10.0939 0.032326 0)
(10.0989 0.0302573 0)
(10.1035 0.0281136 0)
(10.1077 0.0259013 0)
(10.1116 0.0236324 0)
(10.115 0.0213608 0)
(10.0005 0.00582647 0)
(10.0045 0.0165211 0)
(10.0121 0.0247139 0)
(10.0213 0.0299854 0)
(10.0304 0.0331575 0)
(10.0392 0.0349603 0)
(10.0476 0.0357026 0)
(10.0556 0.0356151 0)
(10.0631 0.0349299 0)
(10.07 0.0337997 0)
(10.0765 0.0323491 0)
(10.0824 0.0306824 0)
(10.0878 0.0288708 0)
(10.0928 0.0269594 0)
(10.0974 0.0249721 0)
(10.1015 0.0229257 0)
(10.1053 0.02084 0)
(10.1087 0.0187621 0)
(10.0004 0.00480937 0)
(10.0037 0.0135817 0)
(10.0101 0.0205648 0)
(10.0181 0.0252948 0)
(10.0264 0.028226 0)
(10.0345 0.0299216 0)
(10.0424 0.0306707 0)
(10.05 0.0306664 0)
(10.0571 0.0301031 0)
(10.0638 0.0291273 0)
(10.07 0.0278536 0)
(10.0758 0.0263659 0)
(10.0811 0.0247343 0)
(10.086 0.0229991 0)
(10.0905 0.0211931 0)
(10.0946 0.0193381 0)
(10.0984 0.0174561 0)
(10.1018 0.0155918 0)
(10.0004 0.00377586 0)
(10.0031 0.0106189 0)
(10.0084 0.0162592 0)
(10.0153 0.0202561 0)
(10.0226 0.0227988 0)
(10.03 0.0242831 0)
(10.0373 0.0249578 0)
(10.0444 0.0249831 0)
(10.0511 0.0245119 0)
(10.0575 0.0236754 0)
(10.0635 0.0225654 0)
(10.069 0.0212622 0)
(10.0742 0.0198191 0)
(10.0789 0.0182798 0)
(10.0833 0.0166765 0)
(10.0874 0.0150352 0)
(10.091 0.0133763 0)
(10.0944 0.0117427 0)
(10.0003 0.00272888 0)
(10.0026 0.00765089 0)
(10.0069 0.0118291 0)
(10.0128 0.0148918 0)
(10.0193 0.0168796 0)
(10.026 0.0180304 0)
(10.0326 0.0185359 0)
(10.0392 0.0185198 0)
(10.0455 0.0180968 0)
(10.0515 0.0173659 0)
(10.0572 0.0164066 0)
(10.0625 0.0152797 0)
(10.0675 0.0140304 0)
(10.0721 0.0127002 0)
(10.0763 0.0113169 0)
(10.0803 0.00990672 0)
(10.0838 0.00848762 0)
(10.0871 0.00709721 0)
(10.0002 0.00167093 0)
(10.0022 0.00466204 0)
(10.0058 0.00727024 0)
(10.0108 0.0092058 0)
(10.0166 0.0104567 0)
(10.0226 0.0111292 0)
(10.0287 0.011353 0)
(10.0348 0.0112072 0)
(10.0407 0.0107682 0)
(10.0463 0.0101028 0)
(10.0517 0.00926755 0)
(10.0568 0.00830383 0)
(10.0616 0.00725137 0)
(10.066 0.00613692 0)
(10.0701 0.00498765 0)
(10.0739 0.00382135 0)
(10.0775 0.00265658 0)
(10.0807 0.00151925 0)
(10.0002 0.000578196 0)
(10.0019 0.00156807 0)
(10.0051 0.00247537 0)
(10.0095 0.00309953 0)
(10.0147 0.00342151 0)
(10.0202 0.00345615 0)
(10.0259 0.00326621 0)
(10.0316 0.00288608 0)
(10.0372 0.00235315 0)
(10.0425 0.00169835 0)
(10.0477 0.000951631 0)
(10.0526 0.000135997 0)
(10.0571 -0.000726623 0)
(10.0614 -0.0016192 0)
(10.0654 -0.0025258 0)
(10.0692 -0.00343325 0)
(10.0726 -0.00432947 0)
(10.0758 -0.00519729 0)
(10.0002 -0.000621354 0)
(10.0018 -0.00184924 0)
(10.0048 -0.00284355 0)
(10.0091 -0.00371631 0)
(10.0141 -0.00449744 0)
(10.0194 -0.00524627 0)
(10.0249 -0.00596691 0)
(10.0304 -0.00667201 0)
(10.0358 -0.00736741 0)
(10.041 -0.00805896 0)
(10.046 -0.00874816 0)
(10.0508 -0.00943498 0)
(10.0553 -0.010117 0)
(10.0595 -0.0107914 0)
(10.0634 -0.0114536 0)
(10.0671 -0.0120993 0)
(10.0706 -0.012722 0)
(10.0737 -0.0133168 0)
(10.0002 -0.00179191 0)
(10.002 -0.00519534 0)
(10.0054 -0.00802633 0)
(10.01 -0.0102978 0)
(10.0153 -0.0120984 0)
(10.0208 -0.0135641 0)
(10.0265 -0.0147658 0)
(10.0321 -0.0157567 0)
(10.0376 -0.0165892 0)
(10.0429 -0.017303 0)
(10.048 -0.0179319 0)
(10.0528 -0.0184955 0)
(10.0573 -0.0190126 0)
(10.0615 -0.0194908 0)
(10.0655 -0.0199387 0)
(10.0692 -0.0203567 0)
(10.0727 -0.020745 0)
(10.0759 -0.0211077 0)
(10.0003 -0.00288475 0)
(10.0024 -0.00828971 0)
(10.0064 -0.0126936 0)
(10.0117 -0.0160579 0)
(10.0175 -0.0186132 0)
(10.0235 -0.0205919 0)
(10.0295 -0.0221122 0)
(10.0355 -0.0232677 0)
(10.0412 -0.0241517 0)
(10.0467 -0.0248359 0)
(10.0519 -0.0253755 0)
(10.0568 -0.0258112 0)
(10.0614 -0.0261731 0)
(10.0657 -0.026483 0)
(10.0698 -0.0267517 0)
(10.0735 -0.0269868 0)
(10.0771 -0.0271886 0)
(10.0803 -0.0273674 0)
(10.0003 -0.00409281 0)
(10.0031 -0.0116055 0)
(10.0081 -0.0174727 0)
(10.0144 -0.0217243 0)
(10.021 -0.0248534 0)
(10.0275 -0.0272042 0)
(10.0341 -0.0289173 0)
(10.0404 -0.0301389 0)
(10.0465 -0.0310087 0)
(10.0522 -0.0316229 0)
(10.0576 -0.0320479 0)
(10.0627 -0.0323411 0)
(10.0674 -0.0325444 0)
(10.0718 -0.0326894 0)
(10.0759 -0.0327902 0)
(10.0797 -0.0328593 0)
(10.0832 -0.0328951 0)
(10.0865 -0.0329179 0)
(10.0005 -0.00552255 0)
(10.0042 -0.0153409 0)
(10.0107 -0.0225145 0)
(10.0182 -0.0274158 0)
(10.0256 -0.0309651 0)
(10.0329 -0.0335691 0)
(10.04 -0.0353487 0)
(10.0468 -0.0365125 0)
(10.0533 -0.03728 0)
(10.0593 -0.0377631 0)
(10.0649 -0.0380402 0)
(10.0701 -0.0381678 0)
(10.0749 -0.038204 0)
(10.0793 -0.0381796 0)
(10.0834 -0.0381127 0)
(10.0873 -0.0380127 0)
(10.0908 -0.0378746 0)
(10.0941 -0.0377144 0)
(10.0007 -0.00729647 0)
(10.0059 -0.019699 0)
(10.0143 -0.0278835 0)
(10.0232 -0.0331555 0)
(10.0316 -0.0369871 0)
(10.0397 -0.0397632 0)
(10.0476 -0.0415574 0)
(10.0549 -0.0425879 0)
(10.0618 -0.0431129 0)
(10.0681 -0.0433097 0)
(10.0739 -0.0433167 0)
(10.0792 -0.0432248 0)
(10.0841 -0.0430924 0)
(10.0886 -0.0429438 0)
(10.0927 -0.0427883 0)
(10.0966 -0.0426397 0)
(10.1001 -0.0424719 0)
(10.1035 -0.0423192 0)
(10.001 -0.00956258 0)
(10.0085 -0.0248782 0)
(10.0195 -0.0336115 0)
(10.0299 -0.03896 0)
(10.0393 -0.0429141 0)
(10.0483 -0.0456733 0)
(10.0571 -0.0473268 0)
(10.0652 -0.0483404 0)
(10.0726 -0.0487805 0)
(10.0793 -0.0486655 0)
(10.0853 -0.0482653 0)
(10.0908 -0.0477525 0)
(10.0958 -0.0472135 0)
(10.1003 -0.0467172 0)
(10.1045 -0.0462684 0)
(10.1083 -0.0458703 0)
(10.1118 -0.0455218 0)
(10.1152 -0.0453078 0)
(10.0016 -0.0125982 0)
(10.0124 -0.0308122 0)
(10.0269 -0.0395361 0)
(10.0391 -0.0449528 0)
(10.0499 -0.0489233 0)
(10.0603 -0.0514927 0)
(10.0702 -0.0526415 0)
(10.0793 -0.0531389 0)
(10.0877 -0.0536317 0)
(10.0953 -0.053644 0)
(10.1019 -0.0532483 0)
(10.1078 -0.0525764 0)
(10.113 -0.0517808 0)
(10.1177 -0.0509689 0)
(10.122 -0.0502617 0)
(10.1258 -0.0496911 0)
(10.1294 -0.0492011 0)
(10.1326 -0.0488563 0)
(10.0029 -0.0171436 0)
(10.0195 -0.0369652 0)
(10.0387 -0.0448092 0)
(10.0543 -0.0504674 0)
(10.0682 -0.054866 0)
(10.0815 -0.0572965 0)
(10.0941 -0.0583196 0)
(10.1051 -0.058195 0)
(10.1149 -0.0576016 0)
(10.124 -0.0570409 0)
(10.1321 -0.0564494 0)
(10.1392 -0.0556667 0)
(10.1454 -0.0547542 0)
(10.151 -0.0538251 0)
(10.1561 -0.0529335 0)
(10.1608 -0.0521698 0)
(10.1653 -0.0515775 0)
(10.1693 -0.0509637 0)
(10.0066 -0.0257068 0)
(10.0397 -0.0458672 0)
(10.0705 -0.0510475 0)
(10.0962 -0.0560173 0)
(10.1194 -0.061001 0)
(10.141 -0.0638629 0)
(10.16 -0.0656875 0)
(10.176 -0.0667588 0)
(10.1892 -0.0653049 0)
(10.2 -0.0639594 0)
(10.2092 -0.0629578 0)
(10.2169 -0.0619809 0)
(10.2231 -0.0610243 0)
(10.2279 -0.0601592 0)
(10.2316 -0.059445 0)
(10.2341 -0.0588944 0)
(10.2361 -0.058541 0)
(10.2372 -0.0584767 0)
(10.0504 -0.0370401 0)
(10.1447 -0.0645086 0)
(10.2142 -0.0686674 0)
(10.2567 -0.0697583 0)
(10.2812 -0.070504 0)
(10.2909 -0.0699894 0)
(10.2863 -0.0683355 0)
(10.272 -0.066633 0)
(10.2496 -0.0641707 0)
(10.2207 -0.0618655 0)
(10.1885 -0.0597989 0)
(10.1535 -0.0577444 0)
(10.1168 -0.0557458 0)
(10.0785 -0.0538882 0)
(10.0398 -0.0521599 0)
(10.0014 -0.0508049 0)
(9.96326 -0.0498077 0)
(9.9266 -0.0495881 0)
(9.87041 -0.0369353 0)
(9.62935 -0.0720389 0)
(9.36518 -0.0838118 0)
(9.09938 -0.0864538 0)
(8.84771 -0.0844422 0)
(8.61905 -0.079159 0)
(8.41457 -0.0719343 0)
(8.2317 -0.0642164 0)
(8.06909 -0.057535 0)
(7.92419 -0.0516598 0)
(7.79481 -0.0462744 0)
(7.68012 -0.0411072 0)
(7.5781 -0.0362515 0)
(7.48744 -0.0318877 0)
(7.40613 -0.0281009 0)
(7.33229 -0.0248683 0)
(7.26469 -0.0224156 0)
(7.20194 -0.0212269 0)
(-0.00259963 0.00717379 -8.03456e-19)
(-0.0122471 0.01209 9.42429e-19)
(-0.0253392 0.0132764 -6.56151e-19)
(-0.0392111 0.0114991 -2.01846e-19)
(-0.0493981 0.0060743 3.14814e-19)
(-0.0486342 -0.00305559 -7.85297e-20)
(-0.0334381 -0.015554 -7.91502e-20)
(-0.00694104 -0.0287327 4.00726e-19)
(0.0277922 -0.0387507 -1.88832e-19)
(0.0678844 -0.0438207 4.49532e-20)
(0.110397 -0.044483 1.45651e-20)
(0.152003 -0.0418726 -1.57212e-19)
(0.189995 -0.0370103 2.19549e-19)
(0.222716 -0.0306845 2.24318e-19)
(0.24929 -0.023456 1.93211e-20)
(0.269288 -0.0156792 8.15523e-20)
(0.282389 -0.00756046 3.21808e-20)
(0.28872 0.000945227 5.61745e-20)
(0.287389 0.00977447 8.36947e-20)
(0.27835 0.0184992 9.08074e-21)
(0.262186 0.0264026 -3.10884e-20)
(0.239482 0.0327113 2.65877e-19)
(0.211064 0.0367045 -3.58479e-20)
(0.178189 0.0377764 3.1592e-19)
(0.142577 0.0354789 -7.35402e-20)
(0.106368 0.0297374 3.24632e-19)
(0.0719748 0.0210785 1.96775e-19)
(0.0418431 0.0109507 1.59432e-19)
(0.0179835 0.00180985 -8.12122e-19)
(0.00117866 -0.00396174 -1.77404e-19)
(-0.00973598 -0.00640552 -1.18159e-18)
(-0.0161965 -0.00757622 6.56025e-19)
(-0.0180466 -0.00908077 4.71261e-19)
(-0.0138862 -0.0119425 -5.88228e-19)
(-0.00345053 -0.0163705 -9.30796e-19)
(0.014717 -0.0222259 -5.13003e-20)
(0.0396345 -0.0274545 2.05419e-19)
(0.0689663 -0.0300612 3.79422e-19)
(0.0980632 -0.0284504 2.15526e-19)
(0.122333 -0.0230096 4.37176e-19)
(0.138527 -0.0154603 1.62047e-19)
(0.146051 -0.00813941 4.18318e-20)
(0.146519 -0.00297579 -5.5911e-19)
(0.143394 -0.000919329 -1.16105e-19)
(0.14037 -0.0026381 2.42458e-19)
(0.139145 -0.0087436 1.25287e-20)
(0.136941 -0.018589 5.80418e-19)
(0.127406 -0.0268535 1.8946e-19)
(0.103619 -0.0235495 8.19984e-20)
(0.0606858 -0.0047592 -7.918e-19)
(-0.012273 0.0162116 5.63381e-19)
(-0.108224 0.0355993 3.13189e-20)
(-0.21371 0.0571144 2.88017e-19)
(-0.33123 0.078071 1.68853e-19)
(-0.45727 0.0968076 5.30825e-20)
(-0.588218 0.110616 1.06222e-19)
(-0.721468 0.115684 1.28859e-19)
(-0.853613 0.110712 -1.29599e-19)
(-0.980787 0.103667 4.79009e-20)
(-1.09968 0.0986446 5.09692e-20)
(-1.21133 0.0926463 -1.15662e-19)
(-1.31486 0.0862765 -7.25646e-20)
(-1.41049 0.080456 5.48634e-20)
(-1.49876 0.0712688 6.46573e-20)
(-1.57904 0.0636646 1.7783e-20)
(-1.65305 0.0590805 -6.73537e-20)
(-1.7216 0.0536933 7.32841e-21)
(-1.78502 0.049396 3.43957e-21)
(-1.84406 0.0455342 1.70562e-20)
(-1.89923 0.0421924 8.28665e-20)
(-1.95103 0.0392677 -4.10835e-21)
(-1.99984 0.0366826 -5.94199e-20)
(-2.04602 0.0344029 6.3807e-20)
(-2.08983 0.0323563 2.31862e-20)
(-2.1315 0.0305129 -3.74253e-20)
(-2.17122 0.028828 3.10395e-20)
(-2.20913 0.0272778 -4.76864e-21)
(-2.24535 0.0258354 5.96586e-20)
(-2.27997 0.0244846 2.74474e-20)
(-2.31307 0.0232078 -4.04865e-20)
(-2.34471 0.0219957 -1.15537e-20)
(-2.37494 0.0208359 2.28398e-21)
(-2.40379 0.0197233 4.53361e-20)
(-2.4313 0.0186487 5.62315e-20)
(-2.45749 0.0176087 4.94537e-20)
(-2.48238 0.0165965 -5.01392e-20)
(-2.50599 0.0156092 1.06543e-19)
(-2.52833 0.0146418 -4.22493e-21)
(-2.5494 0.0136898 7.61775e-20)
(-2.56921 0.0127479 -1.07762e-19)
(-2.58775 0.0118127 -5.77163e-20)
(-2.60504 0.0108742 4.84459e-20)
(-2.62105 0.00992755 7.0334e-20)
(-2.63579 0.00896151 -1.06521e-20)
(-2.64921 0.0079687 -6.58777e-20)
(-2.66129 0.00693926 -6.53048e-20)
(-2.67199 0.00586717 6.68727e-20)
(-2.68125 0.00475082 -3.59647e-20)
(-2.68902 0.00359923 -8.56439e-20)
(-2.69524 0.00244651 -3.72614e-20)
(-2.69983 0.00136046 9.1835e-20)
(-2.70273 0.000428871 4.60762e-20)
(-2.70407 -0.00033071 6.88079e-20)
(-2.70423 -0.00100558 -4.20398e-20)
(-2.70313 -0.0016646 1.33828e-20)
(-2.70082 -0.00231048 4.64657e-21)
(-2.69731 -0.002952 -8.51507e-21)
(-2.69257 -0.00358709 -1.84401e-20)
(-2.68662 -0.00421801 -2.76796e-20)
(-2.67944 -0.00484261 -4.50071e-20)
(-2.67103 -0.00546226 -6.16265e-20)
(-2.66138 -0.00607504 3.26031e-20)
(-2.65049 -0.00668212 -4.54739e-20)
(-2.63836 -0.00728188 -4.4447e-20)
(-2.62499 -0.00787547 7.82693e-20)
(-2.61037 -0.00846154 -4.62117e-21)
(-2.59452 -0.00904114 -5.01445e-20)
(-2.57742 -0.00961301 -5.22449e-20)
(-2.55909 -0.0101779 4.82088e-20)
(-2.53953 -0.010735 3.60594e-21)
(-2.51874 -0.0112848 1.44809e-20)
(-2.49672 -0.0118269 -9.48543e-21)
(-2.47349 -0.012362 -2.77411e-20)
(-2.44905 -0.0128892 2.34783e-20)
(-2.42342 -0.0134092 -2.07485e-20)
(-2.3966 -0.0139204 1.87805e-20)
(-2.36861 -0.0144232 2.54615e-20)
(-2.33946 -0.0149154 -9.04257e-21)
(-2.30917 -0.0153978 2.5052e-20)
(-2.27775 -0.0158715 -2.19993e-20)
(-2.24521 -0.0163279 5.28284e-20)
(-2.2116 -0.0167781 -4.55706e-21)
(-2.1769 -0.0172141 -5.47171e-20)
(-2.14117 -0.0176145 1.27424e-20)
(-2.10442 -0.0179669 -2.97083e-21)
(-2.06672 -0.0182087 1.43982e-20)
(-2.02813 -0.0182826 1.6136e-20)
(-1.98873 -0.018137 -1.06293e-20)
(-1.94854 -0.0180527 -2.35746e-21)
(-1.90748 -0.0182878 3.34473e-23)
(-1.86553 -0.0186216 8.33666e-21)
(-1.82278 -0.0188985 1.41338e-20)
(-1.77929 -0.0191551 -1.05403e-20)
(-1.73509 -0.0193901 -1.39573e-20)
(-1.69025 -0.0196046 -2.8819e-20)
(-1.6448 -0.0197998 -4.66887e-20)
(-1.59878 -0.019975 -3.82348e-20)
(-1.55225 -0.0201314 -6.61116e-20)
(-1.50523 -0.0202686 3.44964e-20)
(-1.45778 -0.0203883 3.35713e-20)
(-1.40993 -0.0204906 6.01645e-20)
(-1.36171 -0.0205769 4.61711e-20)
(-1.31315 -0.0206474 1.34906e-19)
(-1.2643 -0.020703 9.35531e-21)
(-1.21519 -0.0207442 6.12595e-21)
(-1.16583 -0.0207721 -1.08805e-19)
(-1.11628 -0.0207894 1.75128e-19)
(-1.06654 -0.0207992 -1.0564e-19)
(-1.01665 -0.0208058 1.48871e-20)
(-0.966605 -0.020813 5.45037e-20)
(-0.916416 -0.0208269 2.01026e-20)
(-0.866073 -0.0208525 5.16756e-20)
(-0.815563 -0.0208955 2.46652e-19)
(-0.764863 -0.0209585 1.22431e-19)
(-0.713949 -0.0210456 5.8157e-20)
(-0.662793 -0.021157 8.27916e-20)
(-0.611372 -0.0212966 2.34843e-19)
(-0.559658 -0.0214657 -1.03202e-20)
(-0.507627 -0.0216687 2.72855e-19)
(-0.455246 -0.0219071 3.95182e-19)
(-0.402491 -0.0221843 3.85886e-19)
(-0.34934 -0.0224941 -1.41014e-20)
(-0.295796 -0.0228315 3.66524e-20)
(-0.241887 -0.0231881 -8.70397e-20)
(-0.187708 -0.0235475 -1.09682e-18)
(-0.133511 -0.0237885 5.45898e-19)
(-0.0797731 -0.023777 4.04638e-19)
(-0.0286942 -0.0230877 -8.3025e-19)
(0.0280183 -0.0209757 -8.03233e-19)
(0.0436682 -0.0100662 1.17973e-18)
(-0.000230083 0.0194629 2.25418e-18)
(-0.00591345 0.0346108 -1.83305e-18)
(-0.0122724 0.035738 -7.85588e-19)
(-0.0129553 0.0266801 2.26261e-18)
(0.000338257 0.00542995 4.67864e-19)
(0.029108 -0.0303266 1.96976e-19)
(0.0673942 -0.0706131 -1.24289e-19)
(0.111263 -0.103934 -4.58734e-19)
(0.156814 -0.1247 -2.59137e-20)
(0.200676 -0.132423 -3.29949e-19)
(0.24067 -0.129568 1.75711e-20)
(0.275811 -0.119393 -4.57155e-21)
(0.305739 -0.104719 1.01919e-19)
(0.33045 -0.0875929 1.46003e-20)
(0.350143 -0.0693582 -3.18214e-20)
(0.365122 -0.05079 -2.66871e-19)
(0.375752 -0.0322729 -5.76703e-20)
(0.382228 -0.0139529 2.53317e-19)
(0.385414 0.00417449 -2.94986e-19)
(0.385366 0.0220232 8.25528e-20)
(0.381739 0.0393082 7.51221e-21)
(0.374057 0.0555556 1.65038e-19)
(0.361762 0.0700778 1.95466e-19)
(0.344333 0.0819402 1.71965e-19)
(0.321466 0.0900338 2.335e-19)
(0.293227 0.0932508 -1.41e-19)
(0.26028 0.0907419 3.83622e-20)
(0.224009 0.0823792 5.38594e-20)
(0.18652 0.0689949 -2.37253e-19)
(0.150552 0.0523098 -1.95757e-19)
(0.119184 0.0340882 -3.83485e-19)
(0.0955814 0.0154771 -1.44131e-19)
(0.0821793 -0.00345702 -1.26977e-18)
(0.0800558 -0.022577 5.23824e-19)
(0.0888534 -0.0414721 -6.59431e-19)
(0.106161 -0.0597524 6.52106e-19)
(0.12735 -0.0727851 -5.17984e-19)
(0.146343 -0.0745219 1.22386e-19)
(0.158784 -0.0645085 2.81766e-19)
(0.163302 -0.0469034 -2.16175e-19)
(0.160097 -0.0270639 1.92617e-19)
(0.149993 -0.0109079 -8.52912e-20)
(0.134213 -0.00145683 -3.63829e-19)
(0.111166 0.00289076 -1.18948e-18)
(0.0741875 0.00778992 -9.87293e-19)
(0.0146537 0.0228134 1.26556e-20)
(-0.0795054 0.0560474 -9.8157e-19)
(-0.199515 0.0981156 -1.71929e-19)
(-0.329791 0.141601 4.29333e-19)
(-0.46604 0.182993 4.99775e-19)
(-0.607701 0.217711 9.62534e-20)
(-0.75078 0.243902 -3.53158e-20)
(-0.89177 0.26184 -3.22378e-20)
(-1.02851 0.271146 -9.43251e-20)
(-1.15737 0.27248 -6.701e-20)
(-1.27559 0.267232 -1.64777e-19)
(-1.38224 0.256635 -1.84802e-19)
(-1.47777 0.241815 -4.01906e-20)
(-1.56221 0.224428 2.5862e-20)
(-1.63704 0.206238 -1.2753e-19)
(-1.7034 0.188207 9.55115e-20)
(-1.76275 0.171079 -4.05101e-20)
(-1.81613 0.155416 -1.59813e-19)
(-1.86515 0.141274 1.22368e-20)
(-1.91013 0.128669 1.14192e-19)
(-1.95197 0.117766 -4.3704e-20)
(-1.99095 0.108206 4.80943e-21)
(-2.02774 0.0998944 -1.00327e-19)
(-2.06262 0.0926569 3.44456e-20)
(-2.09583 0.0863277 -5.85891e-20)
(-2.12755 0.0807577 1.04597e-21)
(-2.15791 0.0758147 -7.21287e-20)
(-2.18702 0.071385 2.33682e-21)
(-2.21494 0.0673751 -4.26617e-20)
(-2.24174 0.0637063 5.64668e-20)
(-2.26745 0.0603155 -9.74014e-20)
(-2.2921 0.0571525 1.26773e-20)
(-2.31571 0.0541761 -9.83358e-20)
(-2.33829 0.0513555 3.87448e-21)
(-2.35987 0.0486635 7.76061e-20)
(-2.38044 0.0460819 1.52271e-20)
(-2.40002 0.0435927 -4.553e-20)
(-2.4186 0.0411853 -6.8102e-20)
(-2.43619 0.0388472 3.90448e-20)
(-2.45278 0.0365718 1.10049e-19)
(-2.46839 0.03435 -3.48303e-20)
(-2.483 0.0321772 -1.14996e-21)
(-2.49662 0.0300476 -2.93447e-21)
(-2.50925 0.0279575 7.03597e-20)
(-2.52086 0.0259032 2.46679e-19)
(-2.53147 0.023882 5.36876e-20)
(-2.54107 0.0218889 1.00656e-19)
(-2.54966 0.0199202 -2.18218e-19)
(-2.55724 0.0179673 -1.04915e-19)
(-2.56379 0.016026 6.82326e-20)
(-2.56933 0.0140886 1.38746e-19)
(-2.57387 0.0121496 -7.62412e-20)
(-2.57742 0.0102014 -3.09933e-20)
(-2.58003 0.00823736 -5.33899e-20)
(-2.58174 0.00626338 7.75537e-20)
(-2.58266 0.00431289 -1.0768e-19)
(-2.58286 0.00245188 -8.09342e-20)
(-2.58226 0.000713386 -5.21612e-20)
(-2.58052 -0.000945161 1.72309e-19)
(-2.57764 -0.00257105 -1.94363e-20)
(-2.57359 -0.00417062 1.21431e-20)
(-2.56835 -0.00575201 6.32541e-20)
(-2.56192 -0.00731343 1.36241e-19)
(-2.55429 -0.00885651 -1.85986e-20)
(-2.54546 -0.0103785 -5.22614e-20)
(-2.53541 -0.0118799 4.14241e-21)
(-2.52414 -0.0133578 -9.65056e-20)
(-2.51166 -0.0148124 1.04553e-19)
(-2.49795 -0.0162411 3.91397e-20)
(-2.48301 -0.0176442 3.07547e-20)
(-2.46686 -0.01902 7.63114e-20)
(-2.44949 -0.020369 9.15318e-20)
(-2.4309 -0.0216896 -4.77223e-20)
(-2.41109 -0.0229819 3.09053e-20)
(-2.39008 -0.0242441 4.45836e-20)
(-2.36786 -0.0254759 5.37082e-20)
(-2.34444 -0.026676 -6.14433e-21)
(-2.31983 -0.0278446 -2.35625e-21)
(-2.29403 -0.0289803 -4.31714e-20)
(-2.26706 -0.0300831 -3.96699e-20)
(-2.23892 -0.0311511 -4.23177e-20)
(-2.20964 -0.0321845 4.1153e-20)
(-2.17922 -0.0331812 -5.76583e-21)
(-2.14768 -0.0341423 -2.39844e-20)
(-2.11504 -0.0350655 -4.87244e-21)
(-2.0813 -0.035952 -2.70479e-20)
(-2.0465 -0.0367974 -3.38633e-20)
(-2.01067 -0.037603 -1.6313e-20)
(-1.97381 -0.0383639 8.12895e-21)
(-1.93597 -0.0390844 5.94914e-21)
(-1.89716 -0.0397761 5.72121e-21)
(-1.85738 -0.0404543 -5.38563e-21)
(-1.81665 -0.0411169 2.23606e-20)
(-1.77499 -0.0417494 -3.57436e-22)
(-1.73247 -0.0423154 -1.93997e-21)
(-1.68917 -0.0427971 -2.99558e-21)
(-1.6451 -0.0432077 6.52699e-21)
(-1.6003 -0.0435581 4.67508e-21)
(-1.5548 -0.0438553 -1.11908e-20)
(-1.50865 -0.0441004 -4.04571e-21)
(-1.46189 -0.0442977 -2.39072e-20)
(-1.41457 -0.0444471 -1.62719e-20)
(-1.36672 -0.0445523 3.83848e-20)
(-1.3184 -0.0446143 6.54674e-20)
(-1.26962 -0.0446372 -9.48176e-20)
(-1.22044 -0.044623 3.0243e-20)
(-1.17089 -0.0445752 6.17509e-21)
(-1.121 -0.0444963 -1.80807e-19)
(-1.0708 -0.0443882 4.57793e-21)
(-1.02032 -0.0442528 2.96609e-21)
(-0.969578 -0.0440906 -6.3791e-20)
(-0.918614 -0.0439068 8.28348e-20)
(-0.867446 -0.0437048 1.19525e-19)
(-0.816092 -0.0434938 1.27117e-19)
(-0.76456 -0.0432784 1.15306e-19)
(-0.71285 -0.0430705 -1.74916e-19)
(-0.660955 -0.0428738 2.27557e-20)
(-0.608856 -0.042699 -4.99007e-20)
(-0.556529 -0.0425464 1.37526e-19)
(-0.503945 -0.0424234 -4.26706e-20)
(-0.451074 -0.0423246 1.76756e-19)
(-0.397886 -0.0422555 -1.79906e-19)
(-0.34435 -0.0422118 -2.85636e-19)
(-0.290435 -0.0421994 -4.46282e-19)
(-0.236107 -0.0422137 -2.15625e-19)
(-0.181332 -0.0422602 -9.9905e-20)
(-0.126081 -0.0423247 4.91872e-20)
(-0.0703452 -0.0423883 3.07919e-20)
(-0.0141654 -0.0423965 -3.66765e-19)
(0.0423244 -0.0422623 -3.4392e-19)
(0.0989507 -0.041857 4.72456e-19)
(0.155668 -0.0410552 5.74427e-19)
(0.210566 -0.0394549 5.36053e-19)
(0.26907 -0.0361708 2.6864e-19)
(0.305837 -0.0252867 -5.74796e-19)
(0.000344263 0.0222308 2.90337e-19)
(0.000423235 0.0394869 2.8861e-18)
(0.0058053 0.0321278 2.99881e-18)
(0.0252548 -0.000724548 -1.99329e-18)
(0.0636936 -0.0586435 3.50178e-19)
(0.113893 -0.122802 -1.59325e-19)
(0.165872 -0.174241 -6.45395e-20)
(0.212746 -0.204283 4.86368e-19)
(0.251785 -0.213437 3.77463e-19)
(0.282872 -0.206585 3.11197e-19)
(0.307124 -0.189336 1.39576e-19)
(0.325939 -0.166309 1.32026e-19)
(0.340507 -0.140671 -4.20458e-19)
(0.35168 -0.114318 -2.60943e-19)
(0.36002 -0.0882788 9.38234e-20)
(0.365907 -0.0630395 -2.03483e-19)
(0.369605 -0.0387894 1.99535e-19)
(0.371308 -0.0155924 3.00953e-20)
(0.371241 0.00657992 2.97454e-19)
(0.369734 0.0278716 2.59324e-19)
(0.367041 0.0484411 -2.45568e-19)
(0.363355 0.0682775 -6.61985e-19)
(0.358644 0.0871008 -1.19544e-19)
(0.352571 0.104281 -7.74655e-19)
(0.3445 0.118823 1.74918e-19)
(0.333571 0.129411 2.77181e-19)
(0.318928 0.134585 -1.13588e-19)
(0.300052 0.13307 4.05705e-19)
(0.277224 0.124182 2.30278e-19)
(0.251734 0.108068 5.48487e-19)
(0.225934 0.0856828 -3.01037e-19)
(0.202692 0.0583759 -2.14432e-19)
(0.184806 0.0275792 1.22706e-19)
(0.173449 -0.00548571 -1.63838e-19)
(0.168834 -0.0392513 -2.24737e-19)
(0.166982 -0.0673508 -1.32611e-20)
(0.160539 -0.0792546 -6.25713e-19)
(0.14538 -0.0712905 2.02452e-19)
(0.122787 -0.049518 -4.94968e-19)
(0.09337 -0.0211052 -1.7437e-19)
(0.0570204 0.0100551 1.68628e-19)
(0.0106683 0.0400953 -1.87228e-19)
(-0.0569402 0.0689387 -3.37701e-19)
(-0.149183 0.106656 6.99107e-19)
(-0.26097 0.155008 5.80794e-19)
(-0.388202 0.208558 -3.02321e-19)
(-0.524892 0.262633 1.11211e-19)
(-0.664424 0.312954 -1.08568e-19)
(-0.801061 0.355577 -1.66358e-19)
(-0.93073 0.389308 -7.20687e-20)
(-1.04978 0.413001 -7.05035e-20)
(-1.15657 0.425727 1.23769e-19)
(-1.25051 0.427816 1.98536e-20)
(-1.33142 0.420239 8.64111e-20)
(-1.40031 0.404633 9.5493e-21)
(-1.459 0.383078 1.06702e-20)
(-1.50967 0.35755 4.47473e-20)
(-1.55445 0.329802 6.86079e-20)
(-1.59522 0.301766 -1.14942e-20)
(-1.63334 0.274941 2.18844e-19)
(-1.66953 0.250008 1.57021e-19)
(-1.70436 0.227422 3.62626e-20)
(-1.73808 0.207264 8.07082e-20)
(-1.77102 0.18935 -1.87682e-19)
(-1.80335 0.173707 2.77107e-20)
(-1.83499 0.16019 1.085e-19)
(-1.86588 0.148399 -1.74074e-19)
(-1.89604 0.138116 -7.88593e-20)
(-1.92542 0.12909 5.29705e-20)
(-1.95402 0.121105 4.14789e-20)
(-1.98182 0.113975 -8.80609e-20)
(-2.00881 0.107546 1.52193e-19)
(-2.03497 0.101687 1.77984e-20)
(-2.0603 0.096292 5.5e-20)
(-2.08478 0.0912755 -1.80716e-19)
(-2.10842 0.0865675 1.75199e-19)
(-2.13119 0.0821136 3.68639e-20)
(-2.1531 0.0778698 -7.61843e-20)
(-2.17415 0.0738023 -1.38901e-19)
(-2.19431 0.0698833 -6.9036e-20)
(-2.21358 0.0660923 1.11035e-20)
(-2.23197 0.0624115 2.99125e-20)
(-2.24946 0.0588283 -1.41754e-20)
(-2.26605 0.0553309 -1.05958e-19)
(-2.28173 0.0519108 -2.91064e-20)
(-2.29651 0.0485597 -3.22962e-20)
(-2.31037 0.0452712 1.93885e-20)
(-2.32331 0.0420396 -6.71569e-20)
(-2.33533 0.038859 -9.64549e-20)
(-2.34641 0.0357262 -1.18917e-19)
(-2.35657 0.0326374 3.84581e-20)
(-2.36579 0.0295895 -1.40701e-19)
(-2.37407 0.0265775 1.36969e-19)
(-2.38141 0.023597 1.18706e-20)
(-2.38781 0.0206452 -3.23918e-20)
(-2.39325 0.0177211 -6.03651e-20)
(-2.39775 0.0148276 2.08715e-20)
(-2.4013 0.0119699 1.00679e-19)
(-2.40392 0.00915767 8.29724e-20)
(-2.40559 0.00640138 3.6787e-20)
(-2.4063 0.00370608 4.41906e-20)
(-2.406 0.00105442 2.20533e-20)
(-2.40463 -0.00158402 2.03962e-20)
(-2.40217 -0.00421384 -2.82421e-19)
(-2.39859 -0.00682049 5.55411e-20)
(-2.39387 -0.00940102 5.02865e-20)
(-2.38801 -0.0119539 -9.78124e-20)
(-2.38098 -0.0144775 8.31234e-20)
(-2.3728 -0.0169697 -2.76629e-20)
(-2.36343 -0.0194288 1.20042e-19)
(-2.35289 -0.0218524 8.7342e-20)
(-2.34116 -0.0242384 6.14885e-20)
(-2.32825 -0.0265845 -4.05333e-20)
(-2.31414 -0.0288888 4.89142e-20)
(-2.29885 -0.0311493 3.14505e-20)
(-2.28236 -0.0333649 -3.79667e-20)
(-2.26469 -0.0355344 -5.69049e-20)
(-2.24583 -0.0376571 1.77788e-19)
(-2.22579 -0.0397319 2.6467e-20)
(-2.20457 -0.0417576 -6.08575e-20)
(-2.18218 -0.0437328 -1.52891e-19)
(-2.15862 -0.0456566 -1.93621e-20)
(-2.1339 -0.047528 -1.29041e-21)
(-2.10802 -0.0493459 -5.35843e-20)
(-2.08099 -0.0511087 5.61507e-21)
(-2.05283 -0.0528148 4.23178e-20)
(-2.02355 -0.0544627 -1.15898e-19)
(-1.99316 -0.0560509 3.8387e-20)
(-1.96167 -0.0575784 1.50631e-20)
(-1.9291 -0.0590441 5.7683e-20)
(-1.89547 -0.0604462 -1.55708e-20)
(-1.8608 -0.0617818 3.22238e-20)
(-1.8251 -0.0630477 7.73221e-20)
(-1.7884 -0.0642384 7.46726e-21)
(-1.75073 -0.0653498 -2.66478e-20)
(-1.7121 -0.0663836 6.27514e-21)
(-1.67253 -0.0673424 4.31535e-21)
(-1.63206 -0.068229 -7.12016e-21)
(-1.59071 -0.0690585 -6.28717e-21)
(-1.54854 -0.0698295 -4.90742e-22)
(-1.50559 -0.0705151 7.05114e-22)
(-1.4619 -0.0711052 -1.74908e-20)
(-1.41748 -0.0716041 -3.09993e-21)
(-1.37238 -0.0720165 -3.76429e-21)
(-1.32664 -0.0723452 -8.49476e-21)
(-1.2803 -0.072594 4.34738e-20)
(-1.23341 -0.0727647 -1.32164e-20)
(-1.18599 -0.0728614 -3.00023e-20)
(-1.13809 -0.0728872 -8.09496e-20)