/*--------------------------------*- C++ -*----------------------------------*\
  =========                 |
  \\      /  F ield         | OpenFOAM: The Open Source CFD Toolbox
   \\    /   O peration     | Website:  https://openfoam.org
    \\  /    A nd           | Version:  13
     \\/     M anipulation  |
\*---------------------------------------------------------------------------*/
FoamFile
{
    format      ascii;
    class       volScalarField;
    location    "1500";
    object      k;
}
// * * * * * * * * * * * * * * * * * * * * * * * * * * * * * * * * * * * * * //

dimensions      [0 2 -2 0 0 0 0];

internalField   nonuniform List<scalar> 
12225
(
0.735786
1.38352
1.5853
1.64299
1.61061
1.5505
2.04483
2.98983
3.32823
3.14333
2.43542
1.68437
1.49823
2.06394
2.6793
2.19066
1.59173
1.43159
0.195894
0.143785
0.146115
0.158864
0.171381
0.218051
0.241364
0.302024
0.37503
0.430424
0.475782
0.510562
0.54212
0.561942
0.595858
0.624667
0.629803
0.64321
0.378642
0.164599
0.0721579
0.046352
0.0421194
0.0396116
0.037831
0.037964
0.0485186
0.0630901
0.0711984
0.0785546
0.0827998
0.0881405
0.0934478
0.0976812
0.102047
0.105222
0.427414
0.237443
0.134184
0.0783858
0.0525826
0.0394417
0.0351986
0.032833
0.0319567
0.0287333
0.0248217
0.0230436
0.0229423
0.0217038
0.0205853
0.0205376
0.0206605
0.0224207
0.367523
0.308725
0.205019
0.161269
0.122181
0.112362
0.091818
0.0920923
0.0946481
0.0902562
0.0814562
0.073582
0.0661199
0.059543
0.0555634
0.0513568
0.0503876
0.0505175
0.365075
0.342215
0.274781
0.235266
0.204685
0.21336
0.194894
0.203482
0.202062
0.191481
0.17963
0.167528
0.156735
0.148235
0.143753
0.137046
0.136925
0.133833
0.379562
0.348763
0.333525
0.307407
0.301356
0.282811
0.286787
0.287672
0.282147
0.275846
0.266781
0.258967
0.251056
0.24274
0.238833
0.231065
0.228415
0.22438
0.38221
0.358268
0.350673
0.338265
0.336245
0.324608
0.326122
0.326143
0.3218
0.318369
0.312415
0.307841
0.302725
0.297351
0.294428
0.288549
0.285766
0.280778
0.375191
0.36885
0.363053
0.356605
0.353629
0.350817
0.348006
0.345666
0.342379
0.339272
0.335791
0.332605
0.329588
0.326383
0.324162
0.321118
0.319385
0.316599
0.373919
0.37109
0.367365
0.364065
0.361381
0.359046
0.356605
0.354151
0.351591
0.349102
0.346693
0.344326
0.342252
0.340044
0.338337
0.336292
0.334848
0.332883
0.37398
0.371415
0.368759
0.366351
0.364195
0.362109
0.360044
0.357936
0.355874
0.353825
0.351922
0.350039
0.348374
0.346663
0.345212
0.343624
0.342325
0.340767
0.373889
0.371536
0.369237
0.367078
0.365074
0.363144
0.361266
0.359399
0.357592
0.35581
0.354151
0.352524
0.351048
0.349571
0.348251
0.346876
0.345673
0.34434
0.373843
0.371558
0.369375
0.367308
0.365365
0.363504
0.361724
0.359988
0.358328
0.356708
0.355184
0.353707
0.352335
0.350991
0.349751
0.348507
0.347368
0.346188
0.37383
0.371556
0.369402
0.367357
0.365427
0.363588
0.361842
0.360166
0.358571
0.357036
0.355582
0.354185
0.352867
0.351596
0.350398
0.349232
0.348132
0.347051
0.373827
0.371553
0.369401
0.367358
0.365425
0.363587
0.361844
0.360182
0.358604
0.357096
0.355663
0.354294
0.352993
0.351749
0.350565
0.34943
0.348348
0.347309
0.373826
0.371552
0.369396
0.367352
0.365413
0.363574
0.361826
0.360165
0.358585
0.357081
0.355649
0.354285
0.352985
0.351744
0.350562
0.349432
0.348355
0.347323
0.373825
0.37155
0.369392
0.367346
0.365405
0.363562
0.361811
0.360147
0.358565
0.357058
0.355624
0.354258
0.352955
0.351714
0.350528
0.349398
0.348318
0.347288
0.373825
0.371549
0.36939
0.367343
0.3654
0.363554
0.361802
0.360135
0.358551
0.357042
0.355606
0.354238
0.352933
0.35169
0.350503
0.349372
0.34829
0.34726
0.373825
0.371549
0.36939
0.367342
0.365398
0.363553
0.361798
0.360132
0.358546
0.357037
0.355599
0.354231
0.352926
0.351682
0.350494
0.349363
0.34828
0.347249
0.373827
0.371547
0.369395
0.367342
0.365406
0.363555
0.361807
0.360136
0.358554
0.357042
0.355606
0.354236
0.35293
0.351686
0.350495
0.349362
0.348276
0.347242
0.373824
0.371555
0.369393
0.367354
0.365408
0.363572
0.361814
0.360148
0.35855
0.357032
0.355576
0.354192
0.352864
0.351599
0.350385
0.349225
0.348109
0.347045
0.373826
0.371555
0.3694
0.36736
0.365427
0.36359
0.361814
0.360095
0.358413
0.356793
0.355221
0.353722
0.352268
0.350889
0.349539
0.348257
0.346988
0.345792
0.373824
0.371566
0.369399
0.367377
0.365463
0.363617
0.361667
0.359639
0.357516
0.355417
0.353336
0.351369
0.349447
0.347657
0.345866
0.344192
0.342471
0.340879
0.373825
0.371578
0.369402
0.367417
0.365534
0.363521
0.360833
0.357619
0.354022
0.350337
0.346673
0.343311
0.340041
0.33716
0.334236
0.331637
0.328808
0.326276
0.373833
0.371621
0.369425
0.367449
0.365566
0.36288
0.358282
0.352066
0.344855
0.336486
0.328311
0.320667
0.31361
0.307491
0.301834
0.297375
0.292273
0.287882
0.373911
0.371715
0.369488
0.367512
0.36535
0.36195
0.354626
0.341402
0.325357
0.305576
0.286044
0.266859
0.249966
0.236883
0.224993
0.215759
0.207035
0.199809
0.374399
0.372046
0.370188
0.368353
0.3661
0.362147
0.350586
0.327266
0.298677
0.263742
0.230053
0.200241
0.172458
0.151303
0.133717
0.120434
0.108591
0.100034
0.376951
0.375595
0.377563
0.37694
0.375863
0.371947
0.361769
0.332954
0.297495
0.261618
0.247256
0.233304
0.218535
0.210266
0.200717
0.197885
0.182518
0.154102
0.405244
0.418501
0.441222
0.460659
0.477799
0.49035
0.502821
0.513097
0.518656
0.533058
0.538326
0.537376
0.543298
0.546923
0.562957
0.570298
0.57392
0.578695
0.88397
1.20223
1.41692
1.53857
1.59342
1.59321
1.57511
1.54872
1.50921
1.469
1.42954
1.39109
1.35459
1.32008
1.28791
1.25803
1.22935
1.20309
1.40814e-08
3.48971e-07
1.8028e-06
7.20064e-06
2.4386e-05
7.43135e-05
0.000202386
0.000417395
0.000695297
0.000994761
0.00127217
0.00149067
0.00164477
0.00171499
0.00170336
0.00164255
0.00152794
0.00133357
0.00112969
0.00096132
0.000805198
0.000655621
0.000509937
0.000375142
0.000251498
0.00015216
8.31443e-05
4.2452e-05
2.14829e-05
1.13938e-05
6.58439e-06
4.48287e-06
4.14232e-06
6.71192e-06
9.9441e-06
6.68964e-05
0.000156397
0.00042079
0.000814069
0.00112317
0.00114788
0.00104564
0.000846377
0.000752623
0.000774756
0.00093334
0.00113907
0.00189638
0.00342672
0.00829656
0.0248555
0.0586903
0.091105
0.107479
0.11632
0.142668
0.163723
0.165439
0.162588
0.157112
0.177375
0.155342
0.148618
0.163603
0.172787
0.181163
0.190507
0.198129
0.206846
0.214514
0.222574
0.23022
0.237893
0.245403
0.252834
0.260174
0.267411
0.274578
0.28164
0.288637
0.295528
0.302351
0.30907
0.315712
0.322255
0.328705
0.335058
0.3413
0.347441
0.353461
0.359363
0.36514
0.37078
0.376278
0.381621
0.386804
0.391816
0.39666
0.401347
0.405918
0.410423
0.41475
0.418971
0.423052
0.427016
0.430835
0.434527
0.438065
0.441467
0.444709
0.447808
0.450742
0.453527
0.456143
0.458606
0.460896
0.463029
0.464986
0.46678
0.468397
0.469851
0.471134
0.472256
0.473207
0.473994
0.474604
0.475045
0.475301
0.475374
0.475302
0.475175
0.474942
0.474365
0.473757
0.472944
0.472078
0.471094
0.469969
0.468562
0.46704
0.465349
0.463557
0.461637
0.459604
0.457455
0.455195
0.45283
0.450366
0.447826
0.445144
0.442437
0.43956
0.436691
0.433635
0.430607
0.42742
0.424229
0.420969
0.417675
0.41435
0.410999
0.407637
0.404265
0.400897
0.397532
0.394182
0.390845
0.387536
0.384256
0.381016
0.377817
0.374665
0.371548
0.368456
0.365336
0.362107
0.358632
0.354611
0.349434
0.333794
6.81909e-08
1.94217e-06
1.31021e-05
5.63261e-05
0.000213143
0.000619513
0.00150607
0.00282311
0.00439204
0.0060265
0.00755163
0.00881595
0.00978408
0.010388
0.0107426
0.0107267
0.0105899
0.0102841
0.0097512
0.00901042
0.00804662
0.00692796
0.00566102
0.00440264
0.00309947
0.00208334
0.00133677
0.000832458
0.000506525
0.000306022
0.000190499
0.000129089
0.000104
0.000122187
7.15798e-05
0.000770933
0.00161156
0.00425703
0.00773325
0.0104859
0.0118407
0.0117772
0.0115977
0.0120591
0.0142477
0.0185053
0.0246939
0.036418
0.0568868
0.0820463
0.107117
0.130649
0.148892
0.162696
0.175266
0.192549
0.208216
0.223272
0.239122
0.256767
0.275109
0.292777
0.311395
0.331213
0.350637
0.369265
0.388176
0.406443
0.424754
0.442691
0.460568
0.47826
0.495853
0.513344
0.530736
0.548059
0.565287
0.582454
0.599532
0.616547
0.63347
0.65032
0.667072
0.683735
0.700291
0.716739
0.733064
0.749256
0.765306
0.781188
0.796905
0.812433
0.827763
0.842878
0.857755
0.872375
0.886706
0.900718
0.914371
0.927628
0.940489
0.953181
0.965612
0.97782
0.989776
1.00148
1.0129
1.02405
1.03489
1.04544
1.05566
1.06556
1.07512
1.08434
1.0932
1.1017
1.10984
1.11759
1.12496
1.13193
1.13851
1.1447
1.15049
1.15588
1.16086
1.16543
1.16958
1.1733
1.17661
1.17949
1.18196
1.18401
1.18562
1.1868
1.18738
1.18795
1.18813
1.18819
1.18813
1.18767
1.18672
1.18544
1.18381
1.18183
1.1795
1.17684
1.17384
1.17051
1.16687
1.16291
1.15862
1.15405
1.14914
1.14397
1.13846
1.13271
1.12668
1.12043
1.11395
1.10728
1.10043
1.09343
1.08628
1.07902
1.07165
1.0642
1.05666
1.04906
1.04141
1.03373
1.02604
1.01834
1.01063
1.0029
0.995057
0.986996
0.978498
0.96924
0.957288
0.930758
1.70158e-07
5.04331e-06
3.84089e-05
0.000176265
0.000713754
0.0017253
0.00366059
0.00594786
0.00828
0.0104273
0.0122481
0.0136756
0.014701
0.015337
0.0156676
0.015661
0.0155379
0.0152319
0.0147478
0.0141306
0.0133793
0.0124886
0.0114437
0.0102274
0.0088986
0.00735032
0.00571085
0.00419297
0.00286553
0.0018907
0.00126807
0.000909049
0.00067856
0.000676098
0.000800686
0.00308603
0.00739901
0.016206
0.0240703
0.0296664
0.0329523
0.0348867
0.0389783
0.049097
0.0657186
0.0834169
0.101931
0.12257
0.142933
0.162514
0.182839
0.202668
0.222853
0.244481
0.26956
0.296629
0.324529
0.352788
0.381239
0.409837
0.437573
0.465205
0.492194
0.518887
0.544839
0.57018
0.595137
0.619599
0.643732
0.667565
0.69116
0.714552
0.737773
0.76085
0.783796
0.806628
0.829345
0.851958
0.874461
0.896859
0.919141
0.941306
0.963344
0.985249
1.00701
1.02862
1.05006
1.07132
1.0924
1.11327
1.13392
1.15433
1.17451
1.19442
1.21407
1.23344
1.25252
1.27131
1.28981
1.30801
1.32593
1.34355
1.36086
1.37783
1.39447
1.41074
1.42663
1.44214
1.45723
1.4719
1.48613
1.49991
1.51323
1.52607
1.53843
1.55029
1.56163
1.57246
1.58276
1.59251
1.60173
1.6104
1.61852
1.6261
1.63311
1.63955
1.64543
1.65074
1.65548
1.65965
1.66324
1.66627
1.66873
1.67064
1.67193
1.67273
1.67303
1.67292
1.67231
1.6712
1.66955
1.66741
1.66478
1.66165
1.65804
1.65395
1.64939
1.64437
1.63888
1.63297
1.62658
1.6198
1.61254
1.60492
1.59684
1.58841
1.5796
1.57046
1.56101
1.55128
1.5413
1.53109
1.52069
1.51013
1.49942
1.48858
1.47764
1.46661
1.45552
1.4444
1.43326
1.42214
1.41103
1.39994
1.38882
1.37759
1.36606
1.35397
1.33939
1.31456
6.78366e-07
2.04211e-05
0.000159909
0.000643334
0.00201438
0.00473741
0.00819243
0.0116124
0.0146364
0.0170726
0.0188705
0.0200608
0.020725
0.0209421
0.0208634
0.0205992
0.0201087
0.0194972
0.0187974
0.0180272
0.01719
0.0162827
0.0152928
0.0141971
0.0129829
0.011622
0.0101146
0.00851986
0.00695864
0.00545612
0.00416835
0.00317723
0.00258432
0.0029999
0.00571464
0.0146725
0.0296943
0.0430287
0.0535922
0.0621655
0.0712119
0.0828585
0.0974428
0.113275
0.128738
0.144699
0.162099
0.182082
0.20291
0.226236
0.251301
0.278245
0.307039
0.337706
0.37003
0.403113
0.43648
0.469799
0.502873
0.535608
0.567711
0.599369
0.630388
0.660885
0.690784
0.720177
0.749155
0.77776
0.80607
0.834131
0.861988
0.889679
0.917232
0.944669
0.972002
0.999239
1.02638
1.05343
1.08038
1.10723
1.13397
1.16058
1.18706
1.21339
1.23956
1.26556
1.29138
1.317
1.3424
1.36757
1.3925
1.41716
1.44156
1.46567
1.48948
1.513
1.53621
1.55909
1.58165
1.60387
1.62574
1.64723
1.66833
1.68902
1.70929
1.72911
1.74846
1.76733
1.78569
1.80353
1.82084
1.83759
1.85377
1.86936
1.88436
1.89874
1.91249
1.92561
1.93807
1.94987
1.961
1.97146
1.98124
1.99035
1.99876
2.00649
2.01351
2.01984
2.02547
2.03041
2.03465
2.03819
2.04104
2.04321
2.04463
2.04534
2.04549
2.04501
2.04389
2.04214
2.03976
2.03677
2.03317
2.02896
2.02415
2.01876
2.01278
2.00624
1.99913
1.99149
1.98329
1.97459
1.96535
1.95563
1.9454
1.93472
1.92359
1.91206
1.90015
1.8879
1.87535
1.86252
1.84946
1.8362
1.82276
1.80917
1.79546
1.78165
1.76777
1.75385
1.73993
1.72604
1.71221
1.69845
1.68474
1.67107
1.65728
1.6432
1.62716
1.60402
2.29807e-06
6.89399e-05
0.000514191
0.00201282
0.00557268
0.0107083
0.0156071
0.0196191
0.0225427
0.0244381
0.0254823
0.0258785
0.025806
0.0254867
0.0248742
0.0241276
0.0233024
0.0224358
0.0215526
0.0206626
0.0197642
0.0188487
0.0179021
0.0169021
0.0158263
0.0146421
0.0133294
0.01191
0.010474
0.00909029
0.00762022
0.00668234
0.00772601
0.0135371
0.0287314
0.0489402
0.067396
0.082608
0.0949716
0.106157
0.117541
0.12959
0.142391
0.155966
0.171649
0.190376
0.211692
0.235836
0.262352
0.291251
0.321897
0.354135
0.387637
0.422166
0.457391
0.492928
0.528553
0.564089
0.599422
0.634481
0.669143
0.703435
0.737292
0.770745
0.803794
0.83649
0.868884
0.90102
0.932949
0.964709
0.996337
1.02786
1.05931
1.09069
1.12201
1.15328
1.18449
1.21564
1.24671
1.2777
1.30858
1.33935
1.36999
1.40047
1.4308
1.46094
1.49089
1.52062
1.55011
1.57936
1.60833
1.63702
1.66541
1.69349
1.72124
1.74865
1.7757
1.80239
1.8287
1.85459
1.88007
1.9051
1.92967
1.95375
1.97734
2.00039
2.0229
2.04483
2.06618
2.08691
2.10701
2.12646
2.14524
2.16333
2.18071
2.19738
2.2133
2.22848
2.24288
2.25651
2.26935
2.2814
2.29266
2.3031
2.31274
2.32157
2.32958
2.33676
2.34313
2.34868
2.35342
2.35733
2.36044
2.36274
2.36414
2.3647
2.36461
2.36375
2.36213
2.35976
2.35666
2.35283
2.34829
2.34304
2.3371
2.33047
2.32316
2.31519
2.30657
2.29732
2.28743
2.27696
2.26588
2.25425
2.24204
2.2293
2.21605
2.20234
2.1882
2.17367
2.15878
2.14358
2.12811
2.1124
2.09649
2.0804
2.06418
2.04784
2.03143
2.01498
1.99853
1.98214
1.96583
1.94965
1.9336
1.91771
1.90188
1.88599
1.86864
1.84603
7.27934e-06
0.000214059
0.00153833
0.00548044
0.012885
0.0196374
0.0245998
0.0277648
0.0295063
0.0302482
0.0302778
0.0299644
0.0292617
0.0283447
0.0273204
0.0262528
0.025188
0.0241531
0.0231631
0.0222191
0.0213134
0.0204313
0.0195527
0.018648
0.0176954
0.0166471
0.0154532
0.0140693
0.012485
0.0113234
0.0117236
0.0151331
0.0257923
0.0461635
0.0700771
0.0916546
0.10888
0.121668
0.131519
0.140502
0.150099
0.161035
0.174956
0.19203
0.212267
0.235853
0.262263
0.291115
0.321854
0.354117
0.387554
0.421981
0.457168
0.492964
0.529206
0.565741
0.60246
0.639268
0.676079
0.712825
0.749429
0.785867
0.822099
0.858126
0.893944
0.929579
0.965058
1.00041
1.03567
1.07087
1.10603
1.14118
1.17633
1.21148
1.24664
1.28181
1.31697
1.3521
1.3872
1.42224
1.4572
1.49205
1.52679
1.56137
1.5958
1.63003
1.66406
1.69785
1.7314
1.76466
1.79764
1.8303
1.86264
1.89462
1.92623
1.95746
1.98829
2.01869
2.04864
2.07813
2.10712
2.1356
2.16355
2.19095
2.21776
2.24397
2.26955
2.29447
2.31872
2.34226
2.36508
2.38715
2.40846
2.42897
2.44868
2.46756
2.4856
2.50276
2.51905
2.53445
2.54894
2.56252
2.57518
2.58691
2.59772
2.60758
2.61651
2.6245
2.63154
2.63765
2.64281
2.64704
2.65034
2.65271
2.65404
2.65447
2.65409
2.65281
2.65067
2.64767
2.64384
2.63917
2.6337
2.62741
2.62034
2.61249
2.60388
2.59451
2.58441
2.57359
2.56207
2.54988
2.53702
2.52353
2.50941
2.49469
2.47941
2.46361
2.44733
2.4306
2.41348
2.39601
2.37823
2.36018
2.3419
2.32342
2.30478
2.28602
2.26717
2.24828
2.2294
2.21059
2.19189
2.17337
2.15505
2.13698
2.11912
2.10137
2.08255
2.05956
2.31006e-05
0.000639871
0.00420406
0.0132682
0.0225301
0.0286797
0.0321722
0.0338934
0.0344781
0.034343
0.0337497
0.0327369
0.0315164
0.0301908
0.0288412
0.0275261
0.0262845
0.0251358
0.0240852
0.023124
0.0222368
0.021399
0.0205792
0.0197282
0.0188198
0.0179321
0.0171375
0.0166404
0.0169863
0.01967
0.0274221
0.0431361
0.0659547
0.0898122
0.111357
0.128085
0.139669
0.147939
0.155264
0.163533
0.174882
0.189637
0.20796
0.229816
0.254836
0.282572
0.312346
0.343669
0.376166
0.409604
0.443832
0.478752
0.514291
0.550393
0.586997
0.624039
0.661459
0.699187
0.737145
0.775273
0.813508
0.851806
0.89013
0.92846
0.966785
1.00511
1.04345
1.08181
1.12023
1.15871
1.19728
1.23594
1.27471
1.31357
1.35253
1.39157
1.43067
1.46981
1.50895
1.54807
1.58713
1.62611
1.66498
1.70372
1.74228
1.78065
1.8188
1.85671
1.89434
1.93168
1.96869
2.00536
2.04166
2.07757
2.11307
2.14813
2.18273
2.21686
2.25047
2.28356
2.31608
2.34803
2.37937
2.41008
2.44013
2.4695
2.49815
2.52606
2.55321
2.57957
2.6051
2.6298
2.65363
2.67656
2.69859
2.71968
2.73981
2.75897
2.77712
2.79427
2.81039
2.82548
2.83953
2.85253
2.86447
2.87536
2.88517
2.89393
2.90161
2.90824
2.9138
2.9183
2.92174
2.92414
2.92537
2.92563
2.92492
2.92321
2.92052
2.91687
2.91228
2.90675
2.90032
2.89299
2.88477
2.87569
2.86575
2.85498
2.84339
2.83101
2.81786
2.80396
2.78933
2.77399
2.75797
2.74129
2.724
2.70613
2.68773
2.66885
2.64953
2.62982
2.60976
2.5894
2.56879
2.54795
2.52693
2.50576
2.4845
2.4632
2.44191
2.4207
2.39963
2.37876
2.35815
2.33787
2.3179
2.29817
2.27765
2.25364
6.95204e-05
0.00177275
0.0100586
0.0230948
0.0314066
0.0358949
0.0380669
0.0387953
0.0386072
0.0378082
0.0365082
0.0349499
0.0332684
0.0315699
0.0299349
0.0284172
0.027047
0.025832
0.0247648
0.0238267
0.0229932
0.0222305
0.0214858
0.0207174
0.0200363
0.019666
0.020186
0.0227555
0.0291961
0.0422961
0.0616078
0.0836458
0.105449
0.12474
0.139773
0.150158
0.157509
0.164426
0.173308
0.185348
0.20107
0.220459
0.243229
0.26893
0.296956
0.326714
0.357705
0.389642
0.422369
0.455808
0.489923
0.524698
0.560133
0.596225
0.632962
0.670315
0.708236
0.746676
0.785574
0.824874
0.86452
0.904462
0.944661
0.985089
1.02572
1.06656
1.1076
1.14884
1.1903
1.23198
1.27389
1.31603
1.35841
1.401
1.44378
1.48675
1.52985
1.57305
1.61632
1.6596
1.70287
1.74607
1.78917
1.83214
1.87494
1.91753
1.9599
2.002
2.0438
2.08528
2.1264
2.16714
2.20746
2.24736
2.2868
2.32574
2.36417
2.40206
2.43939
2.47611
2.51221
2.54765
2.58242
2.61647
2.64979
2.68233
2.71408
2.745
2.77506
2.80424
2.83251
2.85983
2.88618
2.91153
2.93587
2.95916
2.98139
3.00252
3.02253
3.04142
3.05916
3.07574
3.09115
3.10538
3.11844
3.1303
3.14097
3.15045
3.15874
3.16583
3.17174
3.17646
3.18002
3.18238
3.18348
3.18352
3.18244
3.18024
3.17696
3.17262
3.16723
3.16081
3.15338
3.14496
3.13556
3.12522
3.11393
3.10174
3.08865
3.07468
3.05987
3.04425
3.02783
3.01064
2.99271
2.97406
2.95475
2.93482
2.91431
2.89328
2.87177
2.84983
2.82751
2.80485
2.78191
2.75871
2.73531
2.71175
2.68808
2.66436
2.64066
2.61703
2.59356
2.57032
2.54739
2.52483
2.50265
2.48082
2.45836
2.43285
0.000183117
0.00426142
0.0191087
0.0320185
0.0388163
0.0420812
0.0433221
0.0432793
0.0424364
0.0409344
0.0390672
0.0370119
0.0349142
0.0328898
0.0310225
0.0293648
0.0279432
0.0267616
0.0258096
0.0250721
0.0245383
0.0242419
0.0242812
0.0248592
0.0262892
0.0291309
0.0345079
0.0444943
0.0593887
0.0772582
0.0965388
0.115287
0.131741
0.14481
0.154577
0.162344
0.170222
0.180097
0.193132
0.209711
0.229732
0.25281
0.278444
0.306075
0.335166
0.3653
0.396227
0.427842
0.46012
0.49307
0.526721
0.561106
0.596261
0.632207
0.668948
0.706473
0.744756
0.783763
0.823446
0.863758
0.904648
0.946071
0.987986
1.03036
1.07317
1.1164
1.16004
1.20408
1.24853
1.29339
1.33864
1.38429
1.43031
1.47669
1.52338
1.57036
1.61757
1.66496
1.71247
1.76005
1.80764
1.85518
1.90264
1.94996
1.9971
2.04403
2.0907
2.13709
2.18315
2.22885
2.27415
2.31902
2.36344
2.40738
2.4508
2.49368
2.53598
2.57768
2.61874
2.65913
2.69882
2.73778
2.77598
2.81339
2.84997
2.88569
2.92052
2.95443
2.9874
3.01938
3.05034
3.08026
3.10911
3.13685
3.16347
3.18893
3.2132
3.23627
3.2581
3.27868
3.29798
3.316
3.33272
3.34814
3.36225
3.37503
3.3865
3.39664
3.40546
3.41295
3.41914
3.42401
3.42759
3.42985
3.43077
3.4305
3.42899
3.42625
3.42231
3.41721
3.41096
3.40359
3.39511
3.38555
3.37493
3.36328
3.35061
3.33695
3.32232
3.30674
3.29025
3.27288
3.25465
3.23559
3.21573
3.1951
3.17376
3.15176
3.12914
3.10596
3.08227
3.0581
3.03352
3.00857
2.98331
2.95776
2.93198
2.90602
2.87994
2.8538
2.82767
2.80162
2.77574
2.7501
2.72479
2.69989
2.67542
2.65136
2.62682
2.59942
0.000413653
0.00875805
0.0284381
0.040064
0.0455874
0.0479623
0.0484812
0.0478077
0.0462851
0.0442127
0.0418268
0.0393275
0.0368815
0.0346189
0.0326302
0.0309688
0.029663
0.0287042
0.0280896
0.0278198
0.0278821
0.0284948
0.0300123
0.0331527
0.0387031
0.0473424
0.0591993
0.0733931
0.0890804
0.105303
0.120851
0.134651
0.146215
0.1558
0.164402
0.173548
0.184672
0.198698
0.215911
0.236149
0.259036
0.284098
0.310859
0.33888
0.367818
0.397458
0.427718
0.458595
0.490132
0.522388
0.555427
0.58931
0.624086
0.659788
0.696436
0.734038
0.772582
0.812048
0.852404
0.893614
0.935637
0.978433
1.02197
1.0662
1.11112
1.15669
1.20291
1.24975
1.29721
1.34528
1.39394
1.44317
1.49295
1.54322
1.59395
1.64508
1.69654
1.74826
1.80017
1.85218
1.90423
1.95625
2.00818
2.05997
2.11156
2.16292
2.21399
2.26475
2.31514
2.36511
2.41465
2.46371
2.51226
2.56027
2.6077
2.65452
2.70069
2.74619
2.79098
2.83502
2.87828
2.92073
2.96233
3.00305
3.04284
3.08168
3.11954
3.15638
3.19218
3.22689
3.26048
3.29292
3.32417
3.35422
3.38303
3.41056
3.4368
3.46171
3.48526
3.50744
3.52821
3.54757
3.56551
3.58201
3.59707
3.61067
3.62283
3.63353
3.64277
3.65057
3.65692
3.66184
3.66535
3.66741
3.66806
3.66738
3.66533
3.66195
3.65728
3.65133
3.64415
3.63574
3.62615
3.61538
3.60348
3.59046
3.57635
3.56118
3.54497
3.52775
3.50955
3.4904
3.47033
3.44937
3.42756
3.40494
3.38156
3.35748
3.33276
3.30743
3.28156
3.25518
3.22835
3.20112
3.17354
3.14565
3.11749
3.08914
3.06065
3.03209
3.00354
2.97506
2.94675
2.9187
2.89098
2.86368
2.83684
2.81048
2.78374
2.75453
0.000801384
0.01541
0.0367776
0.0472995
0.0520642
0.0538585
0.05385
0.0526231
0.0505768
0.048025
0.0452326
0.042429
0.0398046
0.0375067
0.035639
0.0342559
0.0334392
0.0331706
0.0334202
0.0344181
0.0364204
0.0397741
0.0448362
0.0518406
0.0608877
0.0718213
0.0842598
0.0975486
0.110947
0.12377
0.135522
0.146062
0.155676
0.165155
0.175562
0.187881
0.202724
0.220271
0.240371
0.262681
0.286813
0.312381
0.33905
0.366549
0.394704
0.423437
0.452753
0.482706
0.513376
0.544848
0.577207
0.610523
0.644858
0.680258
0.716759
0.75438
0.793127
0.832997
0.873972
0.916031
0.959145
1.00328
1.04842
1.09452
1.14156
1.18952
1.23837
1.28809
1.33867
1.39007
1.44228
1.49525
1.54894
1.60329
1.65822
1.71367
1.76954
1.82575
1.88221
1.93881
1.99546
2.05208
2.1086
2.16495
2.22109
2.27695
2.3325
2.38767
2.44241
2.49669
2.55046
2.60369
2.65635
2.7084
2.7598
2.81051
2.8605
2.90973
2.95816
3.00576
3.0525
3.09833
3.14321
3.18711
3.22999
3.27182
3.31256
3.35218
3.39066
3.42794
3.464
3.4988
3.53231
3.56449
3.59532
3.62477
3.6528
3.67939
3.7045
3.7281
3.75019
3.77073
3.78971
3.80714
3.82298
3.83725
3.84994
3.86104
3.87056
3.8785
3.88487
3.88969
3.89297
3.89472
3.89496
3.89373
3.89103
3.88689
3.88137
3.87448
3.86625
3.85673
3.84592
3.83388
3.82061
3.80616
3.79056
3.77382
3.75599
3.73709
3.71714
3.69619
3.67426
3.65138
3.6276
3.60298
3.57757
3.55143
3.5246
3.49715
3.46912
3.44056
3.41151
3.38203
3.35215
3.32194
3.29144
3.26072
3.22985
3.1989
3.16795
3.13707
3.10634
3.07587
3.04572
3.01601
2.98677
2.95805
2.92905
2.89788
0.00130901
0.022575
0.0445536
0.0545522
0.058832
0.0601505
0.0597172
0.0580607
0.055619
0.0527547
0.0497755
0.0469414
0.0444638
0.0425176
0.0412734
0.0407919
0.040945
0.0419397
0.0438712
0.0468931
0.0511613
0.0568064
0.0638717
0.0722948
0.0819079
0.0924242
0.103436
0.114524
0.12534
0.135718
0.145678
0.155524
0.165841
0.177326
0.190576
0.205948
0.223531
0.243178
0.264627
0.287568
0.31172
0.336828
0.362703
0.389205
0.416276
0.443913
0.472171
0.501133
0.530898
0.561565
0.593228
0.625966
0.659856
0.694957
0.731316
0.768969
0.807937
0.848234
0.889861
0.932813
0.977077
1.02264
1.06947
1.11755
1.16684
1.21734
1.26899
1.32179
1.37568
1.43065
1.48663
1.54359
1.60144
1.66011
1.71948
1.77946
1.83994
1.90083
1.96199
2.02331
2.08468
2.14599
2.20717
2.26816
2.32888
2.38927
2.44928
2.50884
2.5679
2.62641
2.68433
2.74163
2.79828
2.85425
2.90948
2.96394
3.01757
3.07035
3.12224
3.1732
3.2232
3.27219
3.32013
3.36698
3.4127
3.45726
3.50063
3.54278
3.58367
3.62326
3.66152
3.69841
3.73389
3.76794
3.80053
3.83162
3.86118
3.88919
3.9156
3.94038
3.96353
3.985
4.0048
4.0229
4.03931
4.05402
4.06701
4.0783
4.08787
4.09575
4.10193
4.10645
4.10933
4.11057
4.11023
4.10829
4.10476
4.09972
4.0932
4.08523
4.07585
4.06509
4.05298
4.03955
4.02485
4.00889
3.99172
3.97337
3.95387
3.93325
3.91154
3.88878
3.86496
3.84016
3.81443
3.78782
3.7604
3.73222
3.70334
3.67381
3.64367
3.61297
3.58176
3.55008
3.51797
3.48549
3.4527
3.41967
3.38648
3.35319
3.3199
3.28666
3.25357
3.22071
3.18817
3.15604
3.1244
3.09331
3.06203
3.02886
0.00193554
0.0291214
0.051773
0.0617226
0.0658061
0.0668813
0.066157
0.0641954
0.0615151
0.0585653
0.0557069
0.0532189
0.0512951
0.0502206
0.049912
0.0504151
0.0518411
0.0542333
0.0576204
0.0620447
0.0675298
0.0740499
0.0814936
0.0897185
0.0985416
0.107767
0.117203
0.126734
0.136327
0.14609
0.156292
0.167328
0.179608
0.193451
0.209032
0.22636
0.245314
0.26569
0.287278
0.309865
0.333287
0.357404
0.382137
0.407437
0.433315
0.459813
0.487016
0.515018
0.543929
0.573852
0.60489
0.637136
0.670674
0.705579
0.741914
0.77973
0.81906
0.859936
0.902378
0.946402
0.992007
1.03919
1.08795
1.13826
1.19009
1.24343
1.29824
1.35447
1.41207
1.47098
1.53114
1.59246
1.65484
1.71815
1.78225
1.847
1.91228
1.97797
2.04393
2.11002
2.17613
2.24213
2.30796
2.37354
2.43879
2.50365
2.56803
2.63185
2.69505
2.7576
2.81946
2.8806
2.941
3.00062
3.05941
3.11731
3.17428
3.23028
3.28529
3.33926
3.39216
3.44394
3.49456
3.54396
3.59213
3.63902
3.68461
3.72887
3.77177
3.81326
3.85331
3.89188
3.92894
3.96446
3.99841
4.03075
4.06146
4.0905
4.11784
4.14345
4.1673
4.18936
4.20963
4.2281
4.24475
4.25958
4.27258
4.28376
4.29311
4.30065
4.30639
4.31036
4.31258
4.31309
4.31196
4.30908
4.30453
4.2984
4.29071
4.2815
4.27082
4.25868
4.24515
4.23024
4.21399
4.19645
4.17765
4.15763
4.13642
4.11406
4.09057
4.066
4.04031
4.0136
3.98594
3.9574
3.92802
3.89787
3.867
3.83545
3.80329
3.77054
3.73726
3.70347
3.66922
3.63456
3.59957
3.56434
3.52893
3.49341
3.45787
3.42237
3.387
3.35183
3.31696
3.28248
3.24848
3.21507
3.18153
3.14642
0.00274751
0.0350192
0.0590746
0.069163
0.0731144
0.0740009
0.0730259
0.0708411
0.0680437
0.0651947
0.0627426
0.0609328
0.0599735
0.0597288
0.0603279
0.0618645
0.0642925
0.0675926
0.0717424
0.0767279
0.0824867
0.0889489
0.0960137
0.103606
0.111642
0.120081
0.128898
0.138152
0.147962
0.158532
0.170082
0.182825
0.196906
0.212379
0.229213
0.247297
0.266497
0.286656
0.307646
0.329349
0.351695
0.374628
0.398143
0.422254
0.447015
0.472496
0.4988
0.526027
0.55429
0.583694
0.614343
0.646339
0.679778
0.714749
0.751327
0.789582
0.829573
0.871351
0.91496
0.960436
1.0078
1.05706
1.10823
1.16129
1.21621
1.27297
1.33152
1.3918
1.45372
1.51718
1.58206
1.64825
1.71559
1.7839
1.853
1.9227
1.99286
2.06334
2.134
2.20474
2.27542
2.34596
2.41625
2.48622
2.55581
2.6249
2.6934
2.76119
2.82819
2.89439
2.95979
3.02436
3.08808
3.1509
3.21275
3.2736
3.33339
3.39209
3.44967
3.50609
3.56131
3.6153
3.668
3.71937
3.76939
3.81801
3.86523
3.911
3.9553
3.9981
4.03936
4.07904
4.11711
4.15354
4.1883
4.22136
4.25269
4.28225
4.31002
4.33596
4.36004
4.38224
4.40255
4.42095
4.43743
4.45199
4.46462
4.47532
4.48409
4.49095
4.49592
4.49903
4.50031
4.49984
4.49761
4.49352
4.48773
4.48029
4.47123
4.4606
4.44844
4.43478
4.41968
4.40317
4.38529
4.36608
4.34558
4.32383
4.30088
4.27676
4.25151
4.22515
4.19763
4.16907
4.13956
4.10916
4.07793
4.0459
4.01314
3.97969
3.94561
3.91094
3.87572
3.83996
3.80369
3.767
3.72997
3.69268
3.6552
3.6176
3.57996
3.54234
3.50482
3.46746
3.43037
3.39366
3.35741
3.32176
3.28606
3.24914
0.00360715
0.04101
0.0662027
0.0765491
0.0804611
0.0812185
0.0799397
0.0774329
0.0746185
0.0721432
0.0703652
0.0694923
0.0692765
0.0697877
0.0711801
0.073413
0.0764206
0.0801628
0.0845914
0.089679
0.0953723
0.10165
0.108476
0.11585
0.123768
0.13228
0.14145
0.151385
0.1622
0.174014
0.186905
0.200918
0.21605
0.232239
0.249404
0.267439
0.286253
0.305754
0.325892
0.346623
0.367943
0.389857
0.412402
0.435631
0.459626
0.484485
0.510314
0.537193
0.565233
0.594551
0.625262
0.657486
0.691327
0.726893
0.764281
0.803583
0.844879
0.888243
0.933742
0.981433
1.03136
1.08355
1.13799
1.19468
1.25359
1.31466
1.37784
1.44301
1.51005
1.57879
1.64903
1.72056
1.79318
1.86668
1.94085
2.01546
2.09033
2.16522
2.24014
2.31503
2.38984
2.46444
2.53873
2.61264
2.68607
2.75888
2.83095
2.90215
2.97237
3.04171
3.1101
3.17751
3.24392
3.30928
3.37352
3.4366
3.49847
3.55911
3.61847
3.67654
3.73328
3.78865
3.84261
3.89513
3.94616
3.99569
4.0437
4.09017
4.13507
4.17838
4.22006
4.26008
4.29839
4.33499
4.36983
4.4029
4.43416
4.46358
4.49113
4.51678
4.5405
4.56226
4.58204
4.59983
4.61563
4.62942
4.6412
4.65097
4.65873
4.66449
4.66829
4.67017
4.67017
4.66842
4.66466
4.65908
4.65176
4.64273
4.63206
4.61977
4.60592
4.59055
4.5737
4.55543
4.53578
4.51478
4.49248
4.46893
4.44418
4.41825
4.39121
4.36307
4.3338
4.30351
4.27228
4.24015
4.20718
4.17342
4.13891
4.10372
4.06788
4.03145
3.99447
3.95693
3.91884
3.88032
3.84145
3.80231
3.76297
3.72349
3.68394
3.6444
3.60493
3.56556
3.52643
3.48766
3.44933
3.41161
3.37387
3.33536
0.00453674
0.0471117
0.0733976
0.0839446
0.0877856
0.0883599
0.0867078
0.0840464
0.0814843
0.0795833
0.0786296
0.0783556
0.0787259
0.0798646
0.0817981
0.0844689
0.087813
0.091801
0.096393
0.101597
0.107391
0.113804
0.120835
0.128549
0.136972
0.146192
0.156254
0.167237
0.179168
0.192059
0.205902
0.220672
0.236301
0.25271
0.269836
0.287604
0.305987
0.324945
0.344493
0.364628
0.385395
0.406821
0.428995
0.451989
0.475938
0.50098
0.527163
0.554497
0.58315
0.613251
0.644942
0.678346
0.713593
0.750807
0.790109
0.831612
0.875415
0.921614
0.970273
1.02146
1.07525
1.13166
1.19064
1.25215
1.31612
1.38251
1.45119
1.52205
1.59489
1.66949
1.74552
1.82262
1.90046
1.97895
2.0579
2.1371
2.21626
2.29511
2.3739
2.45252
2.53088
2.60882
2.68632
2.76342
2.83989
2.91553
2.99026
3.06397
3.1367
3.20833
3.27881
3.34813
3.41624
3.4831
3.54865
3.61285
3.67565
3.73704
3.79701
3.85553
3.91259
3.96816
4.02218
4.07464
4.12549
4.17474
4.22238
4.26839
4.31277
4.35548
4.39649
4.43578
4.47331
4.50906
4.54301
4.57515
4.60543
4.63383
4.66032
4.68487
4.70743
4.72799
4.74653
4.76303
4.7775
4.78991
4.80026
4.80854
4.81475
4.81891
4.82106
4.82125
4.81969
4.81604
4.81044
4.80303
4.79385
4.78295
4.77038
4.75618
4.74042
4.72314
4.70439
4.68422
4.66268
4.6398
4.61565
4.59025
4.56366
4.53593
4.50709
4.47719
4.44631
4.41444
4.38163
4.34792
4.31337
4.27803
4.24194
4.20516
4.16773
4.12971
4.09114