/*--------------------------------*- C++ -*----------------------------------*\
  =========                 |
  \\      /  F ield         | OpenFOAM: The Open Source CFD Toolbox
   \\    /   O peration     | Website:  https://openfoam.org
    \\  /    A nd           | Version:  13
     \\/     M anipulation  |
\*---------------------------------------------------------------------------*/
FoamFile
{
    format      ascii;
    class       volScalarField;
    location    "1500";
    object      nut;
}
// * * * * * * * * * * * * * * * * * * * * * * * * * * * * * * * * * * * * * //

dimensions      [0 2 -1 0 0 0 0];

internalField   nonuniform List<scalar> 
12225
(
7.3157e-06
1.3987e-05
1.63271e-05
1.72966e-05
1.73491e-05
1.70727e-05
2.29583e-05
3.41987e-05
3.87287e-05
3.71252e-05
2.91706e-05
2.0455e-05
1.83961e-05
2.55788e-05
3.35001e-05
2.76169e-05
2.0205e-05
1.82899e-05
2.51652e-06
2.80468e-06
7.10434e-06
7.53553e-06
7.7645e-06
1.06747e-05
1.1489e-05
1.80218e-05
1.95263e-05
2.14675e-05
2.43677e-05
2.38335e-05
2.62754e-05
2.70817e-05
3.06427e-05
3.18157e-05
3.1548e-05
3.28081e-05
2.60534e-05
1.30197e-05
3.59773e-06
3.31864e-06
3.33463e-06
2.99932e-06
2.68271e-06
3.04364e-06
4.18088e-06
5.68143e-06
6.65675e-06
7.946e-06
8.40969e-06
9.15788e-06
9.89957e-06
1.04982e-05
1.10666e-05
1.16341e-05
9.97418e-05
2.70053e-05
1.27242e-05
8.27812e-06
5.79076e-06
4.47977e-06
4.15022e-06
3.33484e-06
3.40223e-06
3.2047e-06
2.9697e-06
3.03195e-06
3.34637e-06
3.37841e-06
3.41571e-06
3.48927e-06
3.61258e-06
4.00063e-06
0.000104906
0.0230481
0.000718259
6.5384e-05
1.56415e-05
1.11627e-05
8.80661e-06
9.2008e-06
1.01867e-05
1.0724e-05
1.04652e-05
1.01859e-05
9.77157e-06
9.51433e-06
9.74709e-06
9.49256e-06
9.75773e-06
1.00549e-05
0.000129764
0.0189462
0.0191282
6.76969e-05
3.70702e-05
3.62694e-05
3.37713e-05
3.67963e-05
3.8064e-05
3.82337e-05
3.81191e-05
3.80236e-05
3.76104e-05
3.73953e-05
3.79893e-05
3.73484e-05
3.88143e-05
3.86122e-05
0.000261516
0.00883111
0.0078827
0.000154931
9.50901e-05
8.71441e-05
9.42009e-05
0.000104474
0.000104456
0.000106541
0.000115287
0.00010937
0.00010843
0.000110276
0.000113274
0.000111551
0.000113047
0.000111589
0.00671161
0.000231214
0.000408058
0.000216303
0.000196643
0.000180889
0.00018598
0.00020063
0.000208599
0.000219067
0.000221599
0.000223945
0.000225516
0.000224132
0.000227516
0.000224565
0.000226682
0.000223575
0.00307945
0.000580087
0.000650061
0.000455641
0.000411464
0.000391653
0.000397769
0.000406888
0.000423772
0.000400377
0.000409093
0.000410732
0.000407276
0.000400743
0.000396651
0.000389739
0.000387523
0.00038036
0.0009764
0.00085653
0.000815507
0.000744225
0.000685878
0.000644151
0.000637037
0.000600718
0.000608924
0.000609004
0.00060349
0.000597562
0.000589016
0.000579465
0.00057189
0.000561622
0.000556366
0.000547069
0.000868992
0.000853796
0.000817507
0.000810813
0.000796511
0.000778703
0.000770773
0.000747788
0.000748803
0.000745273
0.000738953
0.000732142
0.000724007
0.000716193
0.000708828
0.000700592
0.000694764
0.000685863
0.00085555
0.000853584
0.000845982
0.000836938
0.000832164
0.000826452
0.000820194
0.000816995
0.000808636
0.000806867
0.000803549
0.000798889
0.000793984
0.000788874
0.000783883
0.000778754
0.000774576
0.000769006
0.000851829
0.000851512
0.000849688
0.000847517
0.000845471
0.000843655
0.000841682
0.00083966
0.00083744
0.00083505
0.000832835
0.000830311
0.000827992
0.000825428
0.000823246
0.000820752
0.000817932
0.000815585
0.000851538
0.000850815
0.000849928
0.000848953
0.000848072
0.000847186
0.000846374
0.000845451
0.000844549
0.000843473
0.000842479
0.000841344
0.000840393
0.000839278
0.000838448
0.000837348
0.000836641
0.000835521
0.000851537
0.000850683
0.000849878
0.00084907
0.000848335
0.000847606
0.000846946
0.00084627
0.000845645
0.000844983
0.000844374
0.000843732
0.00084316
0.000842562
0.000842042
0.000841489
0.000841013
0.000840496
0.000851538
0.000850674
0.000849858
0.000849074
0.000848336
0.000847628
0.000846962
0.000846319
0.000845711
0.000845122
0.000844563
0.00084402
0.000843506
0.000843008
0.000842537
0.00084208
0.000841647
0.000841227
0.000851537
0.000850673
0.000849852
0.00084907
0.000848328
0.000847621
0.000846949
0.000846307
0.000845696
0.000845111
0.000844553
0.000844019
0.000843509
0.000843019
0.000842552
0.000842103
0.000841674
0.000841262
0.000851539
0.000850677
0.000849857
0.000849077
0.000848335
0.000847627
0.000846954
0.000846312
0.0008457
0.000845114
0.000844556
0.000844021
0.000843509
0.00084302
0.000842551
0.000842103
0.000841672
0.000841261
0.000851537
0.000850673
0.000849851
0.000849068
0.000848323
0.000847615
0.000846939
0.000846295
0.00084568
0.000845093
0.000844531
0.000843996
0.000843482
0.000842991
0.00084252
0.00084207
0.000841637
0.000841224
0.000851536
0.000850673
0.000849851
0.000849069
0.000848326
0.000847619
0.000846941
0.000846291
0.000845659
0.000845057
0.000844468
0.000843916
0.00084337
0.000842866
0.000842359
0.000841894
0.000841417
0.000840984
0.000851534
0.00085068
0.000849852
0.000849078
0.000848347
0.000847683
0.000846917
0.000846153
0.000845241
0.000844372
0.000843433
0.000842595
0.000841686
0.00084095
0.000840088
0.000839414
0.000838536
0.000837872
0.000851527
0.00085068
0.000849898
0.00084901
0.000848673
0.000848009
0.000846424
0.00084402
0.000840586
0.000837051
0.000833342
0.000829756
0.000826427
0.00082361
0.000820749
0.000818343
0.000815681
0.000813096
0.000851434
0.000850839
0.000849877
0.000848806
0.000850838
0.000848184
0.000840664
0.000827866
0.000811619
0.00079532
0.000778678
0.000763701
0.000750671
0.000739922
0.000730114
0.000723233
0.000715153
0.000709944
0.000851646
0.000850877
0.000849506
0.000849349
0.000849927
0.000838953
0.000806374
0.000766786
0.000724581
0.000679253
0.00063806
0.000601434
0.000571913
0.000548542
0.000530432
0.000517992
0.000503669
0.000494264
0.000853582
0.000850884
0.000845077
0.000839403
0.000834316
0.000793301
0.000737851
0.000702263
0.00064998
0.000560202
0.000494153
0.000418966
0.000381786
0.000328162
0.000345986
0.000333769
0.00031264
0.000289454
0.000855259
0.000835258
0.00081117
0.00078779
0.000769438
0.000721951
0.000673898
0.000592932
0.00048609
0.000442076
0.000393178
0.000282901
0.000286546
0.000260475
0.000194206
0.000205665
0.000186454
0.000144661
0.000869347
0.000748449
0.000674856
0.000621047
0.000557252
0.000494564
0.000428248
0.000355264
0.000299117
0.000246085
0.000200638
0.000164701
0.00012759
0.000103055
8.98138e-05
7.19719e-05
5.67115e-05
5.22395e-05
0.000675619
0.00045858
0.000351353
0.000277291
0.000227381
0.000190868
0.000158635
0.00012654
0.000100682
8.05034e-05
7.07573e-05
6.34725e-05
5.67936e-05
5.30566e-05
4.80194e-05
4.64187e-05
4.30965e-05
3.64087e-05
0.000174089
9.93983e-05
7.82766e-05
6.51764e-05
5.81885e-05
5.45336e-05
5.28762e-05
5.19186e-05
5.11775e-05
5.15614e-05
5.12775e-05
5.06592e-05
5.0781e-05
5.08456e-05
5.19328e-05
5.23217e-05
5.19491e-05
5.11112e-05
1.15506e-05
1.58584e-05
1.8903e-05
2.0792e-05
2.18176e-05
2.20935e-05
2.21101e-05
2.19943e-05
2.1671e-05
2.13145e-05
2.09475e-05
2.05752e-05
2.02122e-05
1.98612e-05
1.95293e-05
1.92188e-05
1.89149e-05
1.86362e-05
1.2284e-12
1.38798e-10
7.16416e-10
2.85897e-09
9.6738e-09
2.94536e-08
8.01426e-08
1.65135e-07
2.74832e-07
3.92841e-07
5.01927e-07
5.87589e-07
6.47724e-07
6.74735e-07
6.69519e-07
6.44999e-07
5.99409e-07
5.22645e-07
4.42307e-07
3.7601e-07
3.14628e-07
2.55922e-07
1.98852e-07
1.46137e-07
9.787e-08
5.9151e-08
3.22876e-08
1.64679e-08
8.3247e-09
4.41035e-09
2.54594e-09
1.73146e-09
1.59815e-09
2.58664e-09
3.82793e-09
2.57222e-08
6.00672e-08
1.61425e-07
3.11933e-07
4.29869e-07
4.38805e-07
3.99243e-07
3.22773e-07
2.86671e-07
2.9474e-07
3.54632e-07
4.32261e-07
7.18746e-07
1.29712e-06
3.13649e-06
9.38447e-06
2.21304e-05
3.43081e-05
4.04207e-05
4.36874e-05
4.79135e-05
4.95562e-05
4.54345e-05
4.11767e-05
3.72327e-05
3.96517e-05
3.30228e-05
3.02391e-05
3.20139e-05
3.2658e-05
3.31743e-05
3.38946e-05
3.43347e-05
3.49868e-05
3.54787e-05
3.60505e-05
3.65683e-05
3.71026e-05
3.7622e-05
3.81399e-05
3.8654e-05
3.91628e-05
3.96713e-05
4.0175e-05
4.06802e-05
4.11811e-05
4.16838e-05
4.21838e-05
4.26852e-05
4.31854e-05
4.36859e-05
4.41865e-05
4.46861e-05
4.5186e-05
4.56845e-05
4.61823e-05
4.66789e-05
4.71737e-05
4.76669e-05
4.81575e-05
4.86457e-05
4.91309e-05
4.96143e-05
5.00984e-05
5.05891e-05
5.10916e-05
5.159e-05
5.20948e-05
5.2603e-05
5.31182e-05
5.36374e-05
5.41637e-05
5.46944e-05
5.52328e-05
5.57768e-05
5.63294e-05
5.6889e-05
5.74585e-05
5.80364e-05
5.86257e-05
5.92251e-05
5.98374e-05
6.04614e-05
6.10999e-05
6.17522e-05
6.24216e-05
6.31083e-05
6.3815e-05
6.45414e-05
6.52898e-05
6.606e-05
6.68546e-05
6.76731e-05
6.85178e-05
6.93959e-05
7.03232e-05
7.12949e-05
7.22778e-05
7.33221e-05
7.44047e-05
7.55533e-05
7.67602e-05
7.77905e-05
7.75657e-05
7.73309e-05
7.70817e-05
7.68224e-05
7.65526e-05
7.62725e-05
7.59825e-05
7.56827e-05
7.53734e-05
7.50541e-05
7.47327e-05
7.43903e-05
7.40566e-05
7.36946e-05
7.33477e-05
7.29672e-05
7.26064e-05
7.22164e-05
7.18341e-05
7.14415e-05
7.10463e-05
7.06468e-05
7.02443e-05
6.98393e-05
6.94322e-05
6.9024e-05
6.86145e-05
6.82048e-05
6.77947e-05
6.73855e-05
6.69772e-05
6.65709e-05
6.61667e-05
6.57651e-05
6.5365e-05
6.49658e-05
6.45628e-05
6.41487e-05
6.37114e-05
6.32241e-05
6.26314e-05
6.1084e-05
5.94866e-12
9.73678e-10
1.31644e-08
6.92254e-08
3.05587e-07
1.01223e-06
2.44384e-06
4.58158e-06
7.21436e-06
1.02343e-05
1.33379e-05
1.62318e-05
1.87535e-05
2.06212e-05
2.18714e-05
2.22395e-05
2.20334e-05
2.13413e-05
1.93545e-05
1.66033e-05
1.29639e-05
9.65499e-06
6.85193e-06
4.70445e-06
2.98254e-06
1.85986e-06
1.13302e-06
7.03823e-07
4.36842e-07
2.79273e-07
1.93919e-07
1.52371e-07
1.5004e-07
2.05413e-07
1.35767e-07
1.62783e-06
3.56981e-06
9.45419e-06
1.65885e-05
2.14572e-05
2.26999e-05
2.12825e-05
1.92836e-05
1.7314e-05
1.70424e-05
1.74929e-05
1.79335e-05
2.17589e-05
3.03098e-05
4.11569e-05
5.18544e-05
6.28659e-05
7.21634e-05
7.95639e-05
8.80774e-05
9.99833e-05
0.000111347
0.000123184
0.000135591
0.000147984
0.000163115
0.000173011
0.000184641
0.000197692
0.000210547
0.000222102
0.000233783
0.000245
0.000255987
0.000266334
0.000276421
0.000286224
0.000295788
0.000305147
0.000314298
0.000323293
0.000332109
0.000340792
0.000349319
0.000357729
0.000366
0.000374158
0.000382188
0.000390109
0.00039791
0.000405605
0.000413183
0.000420652
0.000428001
0.000435233
0.000442336
0.000449322
0.000456178
0.000462905
0.000469481
0.000475887
0.00048208
0.000487996
0.000493539
0.000498562
0.000502995
0.000507514
0.000511836
0.000516081
0.000520205
0.00052422
0.000528121
0.000531902
0.000535562
0.000539098
0.000542507
0.000545787
0.000548937
0.000551953
0.000554834
0.000557577
0.000560181
0.000562643
0.000564961
0.000567134
0.00056916
0.000571042
0.000572778
0.00057437
0.000575815
0.000577112
0.000578258
0.000579251
0.000580088
0.000580759
0.000581261
0.000581615
0.000581807
0.000581859
0.00058164
0.000581488
0.000581225
0.000581088
0.000581156
0.000581035
0.000580731
0.000580316
0.000579786
0.000579139
0.000578377
0.000577496
0.000576496
0.000575397
0.000574098
0.000572971
0.000571334
0.00057004
0.000568149
0.000566669
0.000564589
0.000562723
0.000560597
0.000558432
0.000556159
0.000553809
0.000551376
0.000548869
0.000546296
0.00054366
0.000540964
0.000538212
0.000535405
0.000532549
0.000529646
0.000526702
0.000523718
0.000520694
0.000517623
0.000514501
0.000511257
0.000507818
0.000504053
0.000499667
0.000493915
0.000478032
1.48438e-11
2.49964e-09
4.75239e-08
2.86876e-07
1.11182e-06
2.60994e-06
5.69568e-06
1.00173e-05
1.54193e-05
2.1639e-05
2.83221e-05
3.50192e-05
4.11337e-05
4.62991e-05
5.03778e-05
5.30144e-05
5.46886e-05
5.51713e-05
5.41888e-05
5.16495e-05
4.74495e-05
4.20259e-05
3.50798e-05
2.79344e-05
2.12507e-05
1.54188e-05
1.05655e-05
7.0847e-06
4.53194e-06
2.9502e-06
2.01401e-06
1.51898e-06
1.25624e-06
1.42492e-06
1.9423e-06
8.25654e-06
1.96847e-05
4.15274e-05
5.74709e-05
6.4204e-05
6.08075e-05
4.92722e-05
4.22276e-05
4.3642e-05
5.02444e-05
5.74527e-05
6.72284e-05
7.96717e-05
9.1568e-05
0.000105049
0.000122076
0.000140541
0.000161072
0.000183362
0.000210405
0.000239924
0.000270485
0.000301914
0.00033274
0.000362629
0.000391253
0.000419713
0.000445232
0.000472439
0.000497032
0.000520456
0.000543509
0.000565738
0.000586832
0.000607385
0.000627347
0.000646842
0.000665905
0.00068459
0.000702928
0.000720954
0.00073868
0.000756132
0.000773314
0.000790244
0.000806922
0.000823358
0.00083955
0.000855506
0.000871223
0.000886704
0.000901943
0.00091694
0.000931686
0.000946175
0.000960397
0.000974346
0.000988009
0.00100137
0.0010144
0.00102707
0.00103935
0.00105118
0.00106253
0.0010734
0.00108395
0.00109437
0.0011045
0.00111441
0.00112408
0.0011335
0.00114268
0.00115159
0.00116025
0.00116863
0.00117673
0.00118455
0.00119209
0.00119934
0.00120629
0.00121295
0.0012193
0.00122534
0.00123107
0.00123648
0.00124158
0.00124637
0.00125084
0.001255
0.00125884
0.00126236
0.00126556
0.00126844
0.00127098
0.00127319
0.00127509
0.00127667
0.00127793
0.0012789
0.0012795
0.0012799
0.00128009
0.0012802
0.00128015
0.0012798
0.00127916
0.00127826
0.00127709
0.00127566
0.00127396
0.00127201
0.0012698
0.00126739
0.00126457
0.00126183
0.00125839
0.0012552
0.00125122
0.00124756
0.00124311
0.00123877
0.00123405
0.00122916
0.00122405
0.00121875
0.00121328
0.00120765
0.00120188
0.00119597
0.00118994
0.00118379
0.00117753
0.00117117
0.00116472
0.0011582
0.0011516
0.00114493
0.00113817
0.00113129
0.00112418
0.00111668
0.00110849
0.00109887
0.00108595
0.00105719
5.91775e-11
1.00445e-08
1.63824e-07
6.91982e-07
2.2819e-06
6.18896e-06
1.25173e-05
2.10696e-05
3.13379e-05
4.22886e-05
5.29919e-05
6.29314e-05
7.15999e-05
7.84889e-05
8.36386e-05
8.72155e-05
8.88861e-05
8.90487e-05
8.78347e-05
8.52601e-05
8.1093e-05
7.60213e-05
6.91511e-05
6.09398e-05
5.14919e-05
4.18214e-05
3.25068e-05
2.46253e-05
1.82929e-05
1.34355e-05
9.8815e-06
7.56242e-06
6.36138e-06
7.82605e-06
1.45703e-05
3.27224e-05
5.5654e-05
7.25259e-05
7.99578e-05
7.69152e-05
7.46404e-05
7.5593e-05
8.00141e-05
8.81711e-05
9.98629e-05
0.000113825
0.000126006
0.000147282
0.000169199
0.000197326
0.000229143
0.000264662
0.000303263
0.000344382
0.000388293
0.000433136
0.000477982
0.000522243
0.000565053
0.000606493
0.000645946
0.000684967
0.000721154
0.000757591
0.000791795
0.00082483
0.000856831
0.000887849
0.000917946
0.000947356
0.0009761
0.00100428
0.00103194
0.00105914
0.0010859
0.00111225
0.00113821
0.00116379
0.001189
0.00121385
0.00123835
0.00126248
0.00128626
0.00130968
0.00133274
0.00135544
0.00137777
0.00139972
0.0014213
0.00144248
0.00146326
0.00148362
0.00150356
0.00152306
0.0015421
0.00156067
0.00157875
0.00159634
0.00161344
0.00163009
0.00164639
0.00166237
0.00167797
0.00169322
0.00170809
0.0017226
0.00173671
0.00175044
0.00176376
0.00177668
0.00178917
0.00180125
0.00181288
0.00182409
0.00183484
0.00184515
0.001855
0.00186439
0.00187332
0.00188177
0.00188975
0.00189726
0.00190431
0.00191088
0.00191698
0.00192261
0.00192777
0.00193245
0.00193665
0.00194038
0.00194364
0.00194645
0.00194881
0.00195073
0.00195215
0.00195313
0.00195383
0.0019542
0.00195421
0.00195379
0.00195296
0.00195173
0.0019501
0.00194807
0.00194566
0.00194285
0.00193966
0.00193614
0.00193212
0.00192793
0.00192311
0.0019182
0.00191261
0.00190696
0.00190065
0.00189416
0.00188726
0.00188005
0.00187252
0.00186472
0.00185666
0.00184836
0.00183984
0.00183113
0.00182223
0.00181317
0.00180394
0.00179457
0.00178507
0.00177547
0.00176576
0.00175596
0.00174605
0.00173597
0.0017256
0.00171474
0.001703
0.00168931
0.00167121
0.00163715
2.00473e-10
3.04051e-08
3.65355e-07
1.73022e-06
5.96464e-06
1.46411e-05
2.75115e-05
4.31999e-05
5.97969e-05
7.56394e-05
8.95749e-05
0.000100793
0.000109005
0.000114982
0.000118528
0.000120326
0.000120568
0.00011941
0.000117024
0.000113558
0.000108706
0.000103167
9.64268e-05
8.84586e-05
7.90452e-05
6.85009e-05
5.72665e-05
4.66358e-05
3.74633e-05
3.0102e-05
2.39963e-05
2.02201e-05
2.07564e-05
2.98422e-05
5.18866e-05
7.4672e-05
8.80802e-05
9.44398e-05
9.75117e-05
0.000100684
0.00010641
0.000116055
0.000130558
0.000142576
0.000156224
0.000179749
0.000208479
0.000242113
0.000280353
0.000324505
0.000371492
0.00042179
0.000473976
0.000527552
0.000581978
0.000636168
0.000689549
0.000741697
0.000792328
0.000841511
0.000888568
0.000934761
0.000979125
0.00102241
0.00106408
0.00110459
0.00114401
0.00118245
0.00122002
0.00125683
0.00129295
0.00132845
0.00136338
0.00139777
0.00143165
0.00146504
0.00149796
0.0015304
0.00156238
0.0015939
0.00162496
0.00165554
0.00168566
0.00171531
0.00174448
0.00177317
0.00180137
0.00182909
0.0018563
0.00188301
0.0019092
0.00193487
0.00196
0.0019846
0.00200866
0.00203217
0.00205514
0.00207759
0.00209951
0.00212095
0.00214193
0.00216245
0.0021825
0.00220208
0.00222118
0.00223979
0.0022579
0.0022755
0.00229258
0.00230913
0.00232515
0.00234062
0.00235553
0.00236989
0.00238368
0.0023969
0.00240955
0.0024216
0.00243307
0.00244395
0.00245423
0.00246392
0.00247302
0.00248153
0.00248945
0.00249678
0.00250351
0.00250966
0.00251521
0.00252019
0.00252461
0.00252845
0.00253173
0.00253451
0.00253661
0.00253815
0.00253932
0.00254
0.00254018
0.00253983
0.00253898
0.00253762
0.00253578
0.00253343
0.00253059
0.00252727
0.00252346
0.00251921
0.00251443
0.00250927
0.00250353
0.00249745
0.00249077
0.00248376
0.00247618
0.00246822
0.00245981
0.00245099
0.00244179
0.00243224
0.00242236
0.00241217
0.00240171
0.002391
0.00238005
0.00236889
0.00235753
0.00234598
0.00233428
0.00232243
0.00231046
0.00229835
0.00228611
0.00227369
0.00226097
0.00224775
0.00223362
0.00221752
0.00219663
0.00216234
6.35016e-10
7.54267e-08
9.04393e-07
4.55826e-06
1.52916e-05
3.28917e-05
5.45047e-05
7.71019e-05
9.76048e-05
0.000114308
0.000126806
0.000136138
0.000142039
0.000145271
0.00014652
0.000146245
0.000144732
0.000142136
0.000138618
0.000134193
0.000128703
0.00012268
0.000115674
0.000107553
9.83575e-05
8.41674e-05
6.94412e-05
5.54169e-05
4.26671e-05
3.37824e-05
3.12111e-05
3.51529e-05
5.03376e-05
7.40224e-05
9.45265e-05
0.000108159
0.000116404
0.000122085
0.000128997
0.00014043
0.000157976
0.000167195
0.000181961
0.000206763
0.000236357
0.000273331
0.000315937
0.000363779
0.000415835
0.000471504
0.000529093
0.000588579
0.000648827
0.000709386
0.000769786
0.000829431
0.00088803
0.000945161
0.00100076
0.00105533
0.00110799
0.00115951
0.00120953
0.0012583
0.00130576
0.00135208
0.00139736
0.00144169
0.00148518
0.00152789
0.00156989
0.00161123
0.00165194
0.00169207
0.00173162
0.00177061
0.00180905
0.00184693
0.00188425
0.00192102
0.00195722
0.00199286
0.00202792
0.00206241
0.00209632
0.00212965
0.00216239
0.00219454
0.00222609
0.00225705
0.0022874
0.00231715
0.00234628
0.00237481
0.00240273
0.00243004
0.00245676
0.0024829
0.00250846
0.00253346
0.00255791
0.0025818
0.00260513
0.0026279
0.00265009
0.00267169
0.00269271
0.00271313
0.00273294
0.00275212
0.00277069
0.00278862
0.0028059
0.00282253
0.0028385
0.00285382
0.00286847
0.00288244
0.00289575
0.00290837
0.00292031
0.00293158
0.00294217
0.00295208
0.00296132
0.00296989
0.00297779
0.00298503
0.0029916
0.00299752
0.00300283
0.00300748
0.00301153
0.00301493
0.00301757
0.00301964
0.00302122
0.00302221
0.00302262
0.00302245
0.0030217
0.00302039
0.00301852
0.00301609
0.00301309
0.00300956
0.00300548
0.00300088
0.00299573
0.00299008
0.00298387
0.00297717
0.00296992
0.00296218
0.0029539
0.00294513
0.00293588
0.00292616
0.00291602
0.00290547
0.00289454
0.00288326
0.00287165
0.00285976
0.00284758
0.00283515
0.00282248
0.0028096
0.00279652
0.00278327
0.00276988
0.00275635
0.00274268
0.00272883
0.00271471
0.00270015
0.00268478
0.00266767
0.00264625
0.00261389
2.01519e-09
1.89731e-07
2.38083e-06
1.26085e-05
3.38638e-05
6.15469e-05
8.89731e-05
0.000111581
0.000128995
0.000142129
0.000151821
0.000157988
0.000161467
0.000162888
0.000162756
0.000161406
0.000159051
0.000155819
0.000151686
0.000146619
0.000140653
0.000133894
0.000125894
0.000112253
9.63337e-05
8.23318e-05
6.96966e-05
5.87772e-05
5.19012e-05
5.3152e-05
6.4957e-05
8.21515e-05
0.000106522
0.000122893
0.000135012
0.000143842
0.000152197
0.000164142
0.000181264
0.000189121
0.000204092
0.000227749
0.000256673
0.000293701
0.000336587
0.000386156
0.000440328
0.00049825
0.000558861
0.000621432
0.000685121
0.000749562
0.000814116
0.000878441
0.00094225
0.00100483
0.0010663
0.00112696
0.00118613
0.00124407
0.0013006
0.00135589
0.00140986
0.00146266
0.0015143
0.00156488
0.00161448
0.00166318
0.00171105
0.00175815
0.00180453
0.00185022
0.00189526
0.00193967
0.00198346
0.00202662
0.00206916
0.00211108
0.00215237
0.00219301
0.002233
0.00227234
0.00231102
0.00234903
0.00238638
0.00242306
0.00245908
0.00249443
0.00252911
0.00256312
0.00259646
0.00262914
0.00266115
0.00269249
0.00272317
0.00275319
0.00278255
0.00281125
0.00283931
0.00286673
0.00289353
0.00291971
0.00294525
0.00297016
0.00299442
0.00301804
0.00304099
0.00306329
0.00308491
0.00310585
0.00312611
0.00314568
0.00316457
0.00318275
0.00320023
0.00321698
0.00323302
0.00324832
0.0032629
0.00327674
0.00328984
0.00330221
0.00331385
0.00332476
0.00333495
0.0033444
0.00335313
0.00336115
0.00336845
0.00337507
0.00338106
0.00338633
0.00339089
0.00339479
0.00339786
0.00340038
0.00340229
0.00340357
0.00340422
0.00340425
0.00340366
0.00340247
0.00340068
0.00339831
0.00339539
0.0033919
0.00338784
0.00338322
0.00337803
0.00337229
0.00336599
0.00335914
0.00335174
0.0033438
0.00333531
0.0033263
0.00331677
0.00330676
0.00329629
0.00328537
0.00327405
0.00326234
0.00325028
0.00323789
0.00322519
0.0032122
0.00319893
0.00318542
0.00317168
0.00315776
0.00314366
0.00312942
0.00311503
0.00310048
0.0030857
0.00307057
0.00305479
0.00303759
0.00301698
0.00298771
6.06464e-09
4.9954e-07
6.33782e-06
2.76489e-05
5.98002e-05
9.32394e-05
0.000121556
0.000142913
0.000157786
0.000167185
0.000172159
0.000174349
0.000174797
0.000173947
0.000172108
0.000169472
0.000166069
0.000161751
0.00015653
0.000150501
0.000143819
0.000136114
0.000121454
0.000104773
9.00986e-05
7.81903e-05
7.10232e-05
7.12707e-05
7.67868e-05
9.0393e-05
0.000113293
0.000138081
0.000159347
0.000169851
0.000179815
0.000192031
0.000201539
0.000209086
0.000223022
0.000244239
0.000271445
0.000306328
0.00034744
0.000395545
0.000449001
0.000507253
0.000568568
0.000632169
0.000697347
0.000763554
0.00083029
0.000897179
0.000963859
0.00102973
0.00109475
0.00115933
0.00122271
0.0012851
0.00134627
0.00140626
0.00146504
0.00152266
0.00157913
0.00163451
0.00168885
0.00174221
0.00179466
0.00184625
0.00189703
0.00194706
0.00199638
0.00204502
0.002093
0.00214032
0.00218699
0.002233
0.00227835
0.00232302
0.002367
0.00241028
0.00245284
0.00249468
0.00253579
0.00257617
0.00261582
0.00265473
0.00269292
0.00273039
0.00276714
0.00280318
0.0028385
0.00287312
0.00290704
0.00294026
0.00297278
0.0030046
0.00303572
0.00306613
0.00309587
0.00312495
0.00315336
0.00318111
0.00320819
0.0032346
0.00326032
0.00328536
0.0033097
0.00333335
0.00335628
0.0033785
0.0034
0.00342077
0.0034408
0.00346009
0.00347863
0.00349642
0.00351346
0.00352973
0.00354524
0.00355998
0.00357395
0.00358716
0.0035996
0.00361128
0.0036222
0.00363236
0.00364177
0.00365044
0.00365835
0.00366561
0.00367216
0.00367796
0.00368305
0.00368742
0.00369098
0.00369397
0.00369629
0.00369796
0.00369897
0.00369935
0.00369909
0.0036982
0.0036967
0.00369458
0.00369187
0.00368857
0.00368468
0.00368021
0.00367516
0.00366954
0.00366335
0.0036566
0.00364928
0.00364141
0.00363297
0.003624
0.00361451
0.00360451
0.00359403
0.0035831
0.00357174
0.00355996
0.00354781
0.0035353
0.00352245
0.00350928
0.00349581
0.00348206
0.00346807
0.00345385
0.00343945
0.00342488
0.00341016
0.00339529
0.00338024
0.00336491
0.0033491
0.00333229
0.00331293
0.00328723
1.59743e-08
1.24185e-06
1.45661e-05
4.75566e-05
8.7154e-05
0.000121347
0.000147174
0.000165137
0.000176524
0.000182718
0.000185093
0.000184752
0.00018258
0.000179317
0.000175408
0.000171003
0.000166074
0.000160622
0.000154595
0.000147847
0.000140563
0.000129755
0.00011607
0.00010637
0.000101553
9.79275e-05
9.58841e-05
0.000103988
0.000121414
0.000142054
0.000163289
0.000182465
0.000197841
0.000208309
0.000216699
0.000225829
0.000238796
0.000257476
0.000282188
0.000313972
0.000352151
0.000396964
0.000447497
0.000503426
0.000563385
0.000626408
0.000691371
0.000757698
0.000824898
0.000892572
0.000960372
0.00102789
0.00109467
0.00116115
0.00122679
0.00129171
0.00135561
0.00141851
0.00148033
0.00154107
0.00160072
0.00165931
0.00171686
0.00177342
0.00182903
0.00188374
0.0019376
0.00199064
0.00204292
0.00209449
0.00214538
0.00219563
0.00224524
0.00229423
0.00234257
0.00239023
0.00243723
0.00248353
0.00252912
0.00257397
0.00261807
0.0026614
0.00270396
0.00274574
0.00278677
0.00282708
0.00286662
0.00290539
0.0029434
0.00298066
0.00301717
0.00305293
0.00308797
0.00312228
0.00315587
0.00318876
0.00322094
0.00325243
0.00328324
0.00331336
0.00334279
0.00337154
0.00339959
0.00342695
0.0034536
0.00347955
0.00350478
0.00352929
0.00355308
0.00357613
0.00359844
0.00362001
0.00364083
0.00366088
0.00368017
0.0036987
0.00371645
0.00373343
0.00374963
0.00376505
0.00377969
0.00379355
0.00380662
0.00381892
0.00383045
0.0038412
0.00385119
0.00386041
0.00386889
0.0038767
0.00388374
0.00389006
0.00389566
0.00390051
0.00390458
0.00390805
0.00391084
0.00391296
0.00391443
0.00391525
0.00391543
0.00391498
0.00391392
0.00391224
0.00390997
0.0039071
0.00390365
0.00389962
0.00389501
0.00388984
0.0038841
0.0038778
0.00387094
0.00386352
0.00385555
0.00384704
0.00383801
0.00382848
0.00381846
0.00380798
0.00379705
0.00378571
0.00377397
0.00376185
0.00374937
0.00373654
0.00372338
0.00370992
0.00369618
0.0036822
0.003668
0.00365362
0.00363907
0.00362438
0.00360953
0.00359447
0.00357906
0.00356284
0.00354457
0.00352185
3.60851e-08
2.88568e-06
2.68755e-05
7.08475e-05
0.000114425
0.000148375
0.000171147
0.000185259
0.000192562
0.000194415
0.000192703
0.000188818
0.000183711
0.000177961
0.000171936
0.00016546
0.000158825
0.000151626
0.000144177
0.000136339
0.00012807
0.000119592
0.000112278
0.000108343
0.000109982
0.000118259
0.000132035
0.00014881
0.000167039
0.000185064
0.000201452
0.000214643
0.000225638
0.000237415
0.000250627
0.000267974
0.000290154
0.000318627
0.000353317
0.000394212
0.000440752
0.00049262
0.000549068
0.000609388
0.000672499
0.000737546
0.000803801
0.000870827
0.000938272
0.00100585
0.00107296
0.00113969
0.00120611
0.00127184
0.00133678
0.00140088
0.00146402
0.0015262
0.00158737
0.00164754
0.0017067
0.00176488
0.0018221
0.0018784
0.00193386
0.0019885
0.00204238
0.00209551
0.00214791
0.00219967
0.00225083
0.00230143
0.00235149
0.00240104
0.00245014
0.00249881
0.00254683
0.00259413
0.00264068
0.00268645
0.00273141
0.00277555
0.00281884
0.00286129
0.00290289
0.00294364
0.00298359
0.00302277
0.00306122
0.00309893
0.00313593
0.00317221
0.00320779
0.00324267
0.00327686
0.00331037
0.0033432
0.00337534
0.0034068
0.00343758
0.00346766
0.00349705
0.00352575
0.00355374
0.00358103
0.00360761
0.00363346
0.0036586
0.003683
0.00370667
0.0037296
0.00375178
0.0037732
0.00379387
0.00381378
0.00383291
0.00385128
0.00386886
0.00388567
0.0039017
0.00391694
0.0039314
0.00394507
0.00395797
0.00397009
0.00398143
0.003992
0.0040018
0.00401088
0.00401923
0.00402683
0.0040337
0.00403985
0.00404525
0.00404993
0.00405395
0.00405729
0.00405997
0.00406198
0.00406336
0.00406411
0.00406423
0.00406375
0.00406266
0.00406098
0.00405872
0.00405588
0.00405248
0.00404851
0.00404399
0.00403891
0.00403328
0.0040271
0.00402038
0.00401311
0.00400532
0.00399701
0.0039882
0.00397892
0.00396917
0.00395898
0.00394836
0.00393734
0.00392592
0.00391411
0.00390194
0.00388942
0.00387656
0.0038634
0.00384997
0.00383629
0.0038224
0.00380833
0.00379411
0.00377973
0.00376519
0.00375041
0.00373504
0.00371806
0.00369862
6.99091e-08
6.00624e-06
4.07504e-05
9.05273e-05
0.000135278
0.000168589
0.000189766
0.000200268
0.000203224
0.000201216
0.000196135
0.000189294
0.000181608
0.000173299
0.000165057
0.000156735
0.000148688
0.000141537
0.000135517
0.000130601
0.000127187
0.000126371
0.000129022
0.000135418
0.000145496
0.000158534
0.0001735
0.000189212
0.000204668
0.00021855
0.000230663
0.000243925
0.000258763
0.000275812
0.000296296
0.000321951
0.000353088
0.000389946
0.000432176
0.000479427
0.00053121
0.00058707
0.000646359
0.000708357
0.000772245
0.000837359
0.00090319
0.000969394
0.00103558
0.00110129
0.00116698
0.00123203
0.00129654
0.00136027
0.00142315
0.00148512
0.00154613
0.00160618
0.00166529
0.00172346
0.0017807
0.00183701
0.00189238
0.00194695
0.00200078
0.00205394
0.00210653
0.00215875
0.00221069
0.00226211
0.002313
0.00236337
0.00241322
0.00246258
0.00251141
0.00255965
0.00260733
0.00265436
0.00270074
0.00274642
0.00279136
0.00283551
0.00287885
0.00292136
0.00296306
0.00300398
0.00304416
0.0030836
0.00312232
0.00316033
0.00319765
0.00323429
0.00327024
0.00330552
0.00334014
0.00337409
0.00340737
0.00343999
0.00347193
0.0035032
0.00353379
0.0035637
0.00359292
0.00362145
0.00364927
0.0036764
0.00370281
0.00372851
0.00375349
0.00377774
0.00380126
0.00382404
0.00384607
0.00386735
0.00388788
0.00390764
0.00392664
0.00394487
0.00396233
0.00397902
0.00399493
0.00401005
0.0040244
0.00403797
0.00405077
0.00406279
0.00407403
0.00408452
0.00409427
0.00410328
0.00411154
0.00411907
0.00412588
0.00413196
0.00413734
0.00414205
0.00414606
0.00414941
0.00415211
0.00415418
0.00415563
0.00415646
0.00415669
0.00415634
0.0041554
0.0041539
0.00415183
0.00414921
0.00414605
0.00414234
0.0041381
0.00413332
0.004128
0.00412214
0.00411575
0.00410886
0.00410146
0.00409357
0.00408521
0.0040764
0.00406715
0.00405747
0.00404738
0.00403688
0.00402598
0.00401468
0.00400302
0.00399099
0.00397864
0.00396598
0.00395306
0.00393989
0.00392651
0.00391295
0.00389924
0.00388538
0.00387134
0.00385689
0.0038411
0.00382453
1.14192e-07
1.06106e-05
5.67764e-05
0.000113439
0.000159049
0.000189395
0.000206044
0.000212397
0.000211741
0.000206674
0.000199103
0.000190176
0.000180913
0.000172052
0.000163973
0.000157072
0.000151269
0.000147592
0.000145705
0.000145893
0.000148481
0.000153662
0.000161381
0.00017135
0.000183123
0.000196162
0.000209743
0.000222857
0.000235205
0.000248647
0.00026438
0.000281832
0.000301555
0.000325155
0.000353251
0.000386338
0.000424304
0.000466915
0.000513777
0.000564513