/*--------------------------------*- C++ -*----------------------------------*\
  =========                 |
  \\      /  F ield         | OpenFOAM: The Open Source CFD Toolbox
   \\    /   O peration     | Website:  https://openfoam.org
    \\  /    A nd           | Version:  13
     \\/     M anipulation  |
\*---------------------------------------------------------------------------*/
FoamFile
{
    format      ascii;
    class       volScalarField;
    location    "1500";
    object      omega;
}
// * * * * * * * * * * * * * * * * * * * * * * * * * * * * * * * * * * * * * //

dimensions      [0 0 -1 0 0 0 0];

internalField   nonuniform List<scalar> 
12225
(
31477.7
41738.6
39142.4
40493.4
38104
38656.3
31477.7
31477.7
31477.7
31477.7
40621.1
46334.1
41470.7
31477.7
31477.7
39672.3
43010.2
38578.9
77843.4
51266.2
20567
21082
22072.4
20427
21008.2
16758.9
19206.4
20050
19525.1
21422
20632.2
20749.8
18786.8
19258
19963.3
19586.6
14533.3
12642.3
20056.5
13967.2
12630.9
13206.9
14101.8
12473.2
11604.9
11104.6
10695.7
9886.05
9845.76
9624.55
9439.58
9304.58
9221.12
9044.25
4285.2
8792.45
10545.6
9469.03
9080.43
8804.38
8481.15
9845.45
9392.84
8965.98
8358.31
7600.25
6855.88
6424.27
6026.65
5885.92
5719.03
5604.3
3503.36
0.308725
285.438
2466.49
7811.32
10065.8
10426
10009.2
9291.35
8416.29
7783.52
7223.88
6766.55
6258.25
5700.51
5410.22
5163.87
5024.18
2813.38
0.342215
0.274781
3475.28
5521.54
5882.66
5771
5529.98
5308.48
5008.17
4712.33
4405.9
4167.32
3963.99
3784.03
3669.39
3527.7
3466.08
1451.39
0.348763
0.333525
1984.16
3169.16
3245.33
3044.42
2753.52
2701.11
2589.09
2314.07
2367.8
2315.37
2201.2
2108.45
2071.38
2020.53
2010.78
0.38221
1549.51
859.371
1563.84
1709.92
1794.51
1753.54
1625.59
1542.67
1453.29
1409.82
1374.63
1342.37
1326.68
1294.1
1284.93
1260.65
1255.86
121.837
635.853
558.49
782.645
859.442
895.733
874.896
849.535
807.931
847.381
820.819
809.786
809.251
814.444
817.246
823.931
824.17
832.366
382.957
433.248
450.474
489.188
526.888
557.395
559.787
589.546
577.398
573.234
574.481
576.217
581.057
586.824
591.611
598.787
601.848
608.484
430.361
435.016
451.077
451.831
457.238
465.016
467.12
478.659
475.257
474.758
476.245
478.102
481.176
484.036
487.018
490.477
492.721
496.844
437.017
435.266
436.459
438.596
438.705
439.401
440.464
439.904
442.216
440.977
440.733
441.268
442.134
443.127
444.264
445.425
446.274
447.773
438.871
436.35
434.719
433.392
432.144
430.868
429.764
428.731
427.884
427.17
426.476
425.993
425.529
425.223
424.844
424.618
424.69
424.466
439.006
436.706
434.627
432.718
430.891
429.172
427.52
426.005
424.571
423.293
422.066
420.975
419.883
418.926
417.912
417.069
416.107
415.371
439.002
436.771
434.652
432.659
430.755
428.957
427.234
425.611
424.059
422.607
421.215
419.913
418.655
417.476
416.328
415.252
414.201
413.219
439
436.774
434.656
432.65
430.741
428.931
427.204
425.566
424.004
422.52
421.104
419.759
418.474
417.249
416.08
414.963
413.896
412.877
439
436.772
434.655
432.645
430.735
428.92
427.194
425.552
423.988
422.499
421.079
419.728
418.437
417.207
416.032
414.912
413.839
412.818
438.999
436.769
434.65
432.638
430.726
428.908
427.18
425.535
423.969
422.478
421.057
419.703
418.411
417.179
416.002
414.881
413.807
412.784
439
436.771
434.653
432.641
430.73
428.912
427.184
425.539
423.973
422.482
421.061
419.707
418.415
417.184
416.007
414.886
413.813
412.79
439.003
436.769
434.659
432.641
430.738
428.913
427.193
425.546
423.994
422.507
421.101
419.753
418.476
417.25
416.088
414.972
413.916
412.9
439.001
436.774
434.656
432.651
430.729
428.901
427.213
425.63
424.199
422.837
421.582
420.358
419.235
418.098
417.081
416.034
415.139
414.198
439.007
436.775
434.64
432.692
430.587
428.758
427.462
426.643
426.385
426.25
426.26
426.296
426.255
426.038
425.878
425.564
425.396
425.278
439.052
436.706
434.65
432.817
429.533
428.7
430.216
434.417
440.498
446.886
453.764
460.087
465.513
469.856
473.715
475.908
478.878
480.149
438.944
436.7
434.844
432.587
430.077
433.303
447.476
466.387
488.589
515.769
543.323
570.821
594.567
614.648
630.12
640.236
652.826
660.125
437.957
436.747
437.149
437.751
438.162
457.431
485.575
501.331
530.563
600.652
664.391
765.377
821.428
937.011
872.389
890.962
934.853
994.569
437.191
445.03
455.5
466.511
474.827
501.35
526.231
575.787
669.335
691.229
727.517
943.295
872.343
909.43
1158.53
1049.08
1110.38
1381.22
430.667
497.089
548.543
593.116
656.974
732.256
818.652
921.193
998.529
1071.75
1146.61
1215.79
1351.66
1468.19
1488.83
1673.34
1914.8
1914.91
557.934
819.04
1074.6
1359.37
1653.01
1948.71
2280.51
2631.21
2954.78
3249.78
3494.42
3675.67
3847.88
3963.05
4179.92
4263.04
4235.09
4232.56
2327.8
4210.34
5636.7
7067.89
8211.23
8991.71
9509.39
9882.71
10134.5
10338.3
10498.3
10607.7
10698.8
10756.5
10840.1
10899.8
10998.2
11068
18117.5
22915.1
25121.6
26282.6
26744.9
26717.5
26620.6
26357.4
26017
25663.3
25302.7
24947.2
24601.6
24272.2
23958.9
23663.3
23376.4
23112.9
11463.2
2514.24
2516.41
2518.61
2520.83
2523.07
2525.32
2527.6
2529.9
2532.22
2534.57
2536.93
2539.31
2541.72
2544.15
2546.6
2549.08
2551.57
2554.09
2556.64
2559.2
2561.79
2564.41
2567.05
2569.71
2572.4
2575.12
2577.86
2580.62
2583.41
2586.23
2589.08
2591.95
2594.85
2597.77
2600.73
2603.71
2606.72
2609.76
2612.82
2615.92
2619.05
2622.2
2625.39
2628.61
2631.86
2635.14
2638.45
2641.79
2645.17
2648.58
2652.02
2655.5
2659.01
2662.55
2666.13
2669.74
2673.39
2677.08
3153.44
2684.56
2688.35
3265.1
3278.64
3402.97
3482.27
3577.74
3649.62
3731.52
3803.18
3876.28
3945.39
4013.4
4079.28
4143.71
4206.57
4268.01
4328.15
4386.95
4444.63
4501.06
4556.42
4610.63
4663.79
4715.91
4766.95
4817.01
4865.94
4913.92
4960.75
5006.55
5051.27
5094.89
5137.37
5178.67
5218.76
5257.6
5295.22
5331.7
5367.26
5402.43
5436.37
5469.56
5501.82
5533.28
5563.81
5593.51
5622.23
5650.09
5676.96
5702.93
5727.91
5751.97
5775.03
5797.16
5818.26
5838.43
5857.57
5875.75
5892.9
5909.09
5924.28
5938.55
5951.81
5964.13
5975.42
5985.72
5994.93
6003.04
6010.2
6017.15
6023.19
6028.68
6032.33
6035.67
6038.22
6040.29
6041.46
6040.83
6039.5
6037.09
6034.14
6030.33
6025.81
6020.53
6014.53
6007.83
6000.55
5992.38
5983.9
5974.31
5964.62
5953.71
5942.88
5930.71
5918.6
5905.68
5892.51
5878.92
5865.1
5851
5836.79
5822.44
5808.08
5793.7
5779.39
5765.13
5751.04
5737.12
5723.46
5710.08
5697.02
5684.2
5671.53
5658.62
5644.8
5629
5608.79
5579.22
5464.51
11463.2
1994.68
995.274
813.662
697.487
612.027
616.27
616.188
608.791
588.856
566.179
543.128
521.72
503.752
491.172
482.327
480.629
481.886
503.822
542.688
620.695
717.552
826.193
935.845
1039.21
1120.16
1179.83
1182.77
1159.52
1095.78
982.365
847.198
693.151
594.835
527.226
473.597
451.442
450.28
466.182
488.687
521.618
553.376
601.426
696.497
836.016
1057.87
1376.97
1673.71
1876.84
1993.5
2065.73
2078.22
2063.26
2044.85
1989.91
1925.81
1869.98
1812.51
1763.56
1735.1
1686.6
1692.24
1686.49
1675.4
1665.36
1662.59
1660.41
1658.96
1659.28
1662.17
1666.18
1670.93
1676.38
1682.29
1688.64
1695.24
1702.12
1709.12
1716.29
1723.5
1730.79
1738.09
1745.4
1752.68
1759.92
1767.09
1774.19
1781.18
1788.1
1794.87
1801.58
1808.13
1814.56
1820.85
1827.03
1833.15
1839.33
1845.75
1852.68
1860.61
1869.78
1878.14
1886.57
1894.7
1902.66
1910.41
1917.94
1925.26
1932.35
1939.23
1945.89
1952.33
1958.55
1964.55
1970.32
1975.88
1981.21
1986.32
1991.21
1995.88
2000.34
2004.58
2008.62
2012.43
2016.03
2019.42
2022.59
2025.55
2028.33
2030.95
2033.44
2035.72
2037.82
2039.67
2041.44
2042.95
2044.19
2044.77
2044.43
2044.06
2043.5
2042.75
2041.8
2040.66
2039.33
2037.82
2036.16
2034.26
2032.52
2029.62
2027.93
2024.51
2022.61
2018.76
2016.45
2012.91
2009.79
2006.38
2002.94
1999.39
1995.79
1992.14
1988.45
1984.74
1981.01
1977.28
1973.57
1969.88
1966.24
1962.66
1959.15
1955.74
1952.45
1949.26
1946.29
1943.6
1941.26
1939.77
1938.16
1947.06
11463.2
2017.61
808.2
614.43
641.968
661.047
642.696
593.759
536.989
481.876
432.459
390.518
357.395
331.259
311.003
295.411
284.116
276.084
272.156
273.587
281.97
297.164
326.218
366.121
418.743
476.711
540.519
591.835
632.297
640.87
629.622
598.461
540.15
474.482
412.236
373.768
375.876
390.249
418.826
462.064
541.912
659.29
819.477
1011.13
1187.26
1333.2
1464.17
1538.44
1560.95
1547.03
1497.74
1442.06
1383.56
1333.33
1281.15
1236.35
1199.8
1168.51
1145.76
1130.18
1118.39
1108.39
1105.48
1098.32
1096.19
1095.54
1094.99
1095.2
1096.96
1099.08
1101.72
1104.68
1107.93
1111.39
1115.05
1118.83
1122.74
1126.73
1130.8
1134.91
1139.07
1143.25
1147.45
1151.66
1155.86
1160.05
1164.22
1168.37
1172.5
1176.6
1180.68
1184.73
1188.76
1192.79
1196.83
1200.93
1205.11
1209.42
1213.9
1218.57
1223.23
1227.7
1232.11
1236.38
1240.54
1244.58
1248.5
1252.3
1255.97
1259.51
1262.93
1266.23
1269.39
1272.43
1275.34
1278.12
1280.76
1283.29
1285.68
1287.94
1290.07
1292.07
1293.95
1295.7
1297.31
1298.8
1300.16
1301.4
1302.52
1303.53
1304.42
1305.18
1305.81
1306.31
1306.7
1306.92
1306.96
1306.76
1306.34
1305.83
1305.19
1304.44
1303.57
1302.58
1301.48
1300.27
1298.94
1297.45
1296
1294.13
1292.59
1290.47
1288.78
1286.45
1284.55
1282.25
1280.02
1277.67
1275.29
1272.84
1270.35
1267.83
1265.27
1262.69
1260.09
1257.48
1254.87
1252.26
1249.67
1247.11
1244.59
1242.12
1239.74
1237.47
1235.4
1233.65
1232.36
1232.15
1233.38
1243.45
11463.2
2033.06
976.101
929.697
882.765
765.46
654.487
551.143
467.05
403.716
356.102
318.773
289.455
266.816
249.447
236.188
226.23
218.949
214.009
211.437
211.979
214.186
221.151
232.969
252.134
277.896
311.155
345.979
380.402
406.097
421.834
420.134
406.252
383.322
392.213
448.393
533.552
593.287
650.061
723.445
830.363
966.647
1079.63
1157.33
1224.57
1271.24
1286.43
1236.29
1199.24
1146.51
1096.7
1051.32
1012.45
980.614
952.967
930.685
913.171
899.578
889.957
883.122
878.882
875.034
874.137
872.351
872.427
873.121
874.332
876.004
878.124
880.483
883.094
885.887
888.84
891.923
895.115
898.397
901.756
905.176
908.649
912.163
915.711
919.284
922.875
926.477
930.085
933.693
937.299
940.898
944.489
948.069
951.642
955.204
958.759
962.315
965.877
969.453
973.049
976.667
980.299
983.914
987.454
990.892
994.254
997.522
1000.7
1003.78
1006.76
1009.65
1012.43
1015.12
1017.7
1020.18
1022.55
1024.82
1026.99
1029.04
1030.99
1032.83
1034.57
1036.19
1037.7
1039.11
1040.4
1041.59
1042.66
1043.62
1044.48
1045.23
1045.87
1046.4
1046.82
1047.13
1047.33
1047.4
1047.38
1047.21
1046.91
1046.47
1045.89
1045.22
1044.45
1043.57
1042.6
1041.52
1040.34
1039.07
1037.7
1036.21
1034.68
1032.97
1031.3
1029.4
1027.58
1025.53
1023.54
1021.41
1019.25
1017.03
1014.75
1012.43
1010.06
1007.66
1005.23
1002.77
1000.29
997.798
995.299
992.798
990.304
987.825
985.374
982.963
980.621
978.386
976.322
974.53
973.155
972.704
973.642
979.766
11463.2
2267.38
1407.37
1163.33
934.286
731.387
567.294
454.148
376.988
323.087
284.48
256.75
236.741
221.659
209.859
200.519
193.271
187.889
184.173
181.956
181.814
182.701
185.655
191.073
200.218
213.751
232.76
255.383
279.58
301.983
317.559
330.48
368.289
433.601
539.398
618.78
683.801
753.416
829.743
902.443
966.235
1021.79
1069.11
1093.92
1098.73
1059.12
1015.41
974.074
935.79
897.526
866.497
839.602
817.841
800.237
785.926
774.839
766.52
760.538
756.532
753.978
753.057
752.53
753.011
753.853
755.387
757.288
759.509
761.997
764.702
767.573
770.591
773.73
776.974
780.309
783.722
787.203
790.74
794.327
797.954
801.615
805.302
809.008
812.729
816.457
820.187
823.916
827.639
831.353
835.053
838.742
842.411
846.064
849.697
853.312
856.907
860.482
864.029
867.542
871.01
874.417
877.746
880.99
884.154
887.231
890.22
893.117
895.923
898.633
901.247
903.764
906.184
908.503
910.722
912.837
914.849
916.756
918.556
920.248
921.832
923.305
924.67
925.923
927.066
928.098
929.018
929.826
930.523
931.109
931.584
931.945
932.191
932.323
932.34
932.226
932.008
931.665
931.199
930.61
929.906
929.1
928.191
927.179
926.064
924.849
923.538
922.128
920.624
919.015
917.333
915.532
913.684
911.714
909.711
907.592
905.44
903.2
900.907
898.552
896.145
893.69
891.19
888.651
886.079
883.479
880.856
878.218
875.569
872.914
870.26
867.616
864.995
862.416
859.901
857.481
855.209
853.168
851.477
850.494
850.685
853.718
11463.2
2837.97
1700.96
1202.31
842.617
597.033
451.333
360.105
302.304
264.619
238.773
220.103
206.012
195.116
186.462
179.512
174.032
169.929
167.101
165.575
165.602
166.541
169.032
173.383
179.909
189.372
203.152
221.306
244.013
274.118
319.962
381.968
483.421
587.022
664.543
729.302
789.734
840.656
880.906
915.92
948.287
963.153
961.504
928.745
898.075
862.885
830.11
800.253
773.995
751.037
732.487
716.949
704.607
694.915
687.472
682.083
678.423
676.359
675.562
675.454
676.386
677.759
679.686
681.97
684.618
687.52
690.631
693.914
697.339
700.882
704.53
708.268
712.086
715.976
719.928
723.935
727.989
732.082
736.206
740.355
744.521
748.699
752.881
757.062
761.237
765.4
769.547
773.672
777.774
781.846
785.888
789.895
793.866
797.797
801.686
805.527
809.314
813.037
816.692
820.271
823.767
827.176
830.497
833.727
836.864
839.905
842.849
845.692
848.435
851.074
853.607
856.035
858.356
860.567
862.667
864.653
866.524
868.279
869.916
871.433
872.831
874.109
875.266
876.301
877.214
878.005
878.674
879.221
879.645
879.945
880.109
880.153
880.065
879.859
879.528
879.068
878.482
877.772
876.943
876.002
874.95
873.786
872.513
871.134
869.651
868.064
866.375
864.582
862.697
860.71
858.642
856.477
854.241
851.917
849.525
847.057
844.523
841.925
839.27
836.563
833.807
831.009
828.173
825.307
822.415
819.505
816.58
813.646
810.711
807.782
804.873
801.999
799.18
796.447
793.841
791.431
789.306
787.717
786.983
787.931
11463.2
3372.51
1765.79
1052.33
665.315
465.982
361.595
303.756
267.283
241.633
222.3
207.211
195.188
185.346
177.205
170.539
165.259
161.314
158.783
157.716
158.097
159.821
163.464
169.223
177.879
190.299
207.06
231.908
271.051
331.397
422.158
525.08
608.603
674.052
730.093
774.306
808.008
835.862
856.562
864.702
856.876
832.658
810.214
782.484
757.118
731.757
709.348
689.751
673.093
659.13
647.816
638.71
631.717
626.556
622.974
621.04
620.329
620.42
621.472
623.176
625.485
628.229
631.359
634.775
638.438
642.293
646.305
650.448
654.701
659.051
663.485
667.996
672.575
677.214
681.908
686.648
691.426
696.234
701.065
705.91
710.761
715.612
720.455
725.284
730.093
734.877
739.629
744.344
749.016
753.644
758.22
762.743
767.21
771.616
775.958
780.233
784.436
788.566
792.613
796.571
800.434
804.2
807.867
811.432
814.892
818.247
821.491
824.626
827.646
830.551
833.338
836.004
838.543
840.959
843.249
845.412
847.446
849.35
851.122
852.76
854.264
855.633
856.867
857.965
858.927
859.752
860.441
860.993
861.409
861.683
861.799
861.788
861.644
861.362
860.942
860.385
859.691
858.866
857.911
856.832
855.63
854.308
852.865
851.303
849.614
847.809
845.893
843.865
841.732
839.493
837.158
834.724
832.203
829.593
826.9
824.127
821.28
818.362
815.382
812.343
809.252
806.114
802.934
799.719
796.476
793.211
789.929
786.636
783.339
780.048
776.774
773.531
770.339
767.223
764.219
761.38
758.774
756.576
754.942
754.302
11463.2
3548.76
1587.07
835.289
525.192
384.976
313.162
271.462
244.681
226.146
212.061
200.459
190.326
181.492
173.93
167.681
162.866
159.702
158.211
158.316
159.877
163.322
169.316
178.419
193.021
215.809
249.313
301.635
380.223
467.913
543.793
605.775
658.876
702.791
737.255
765.332
781.533
786.406
777.091
758.88
740.74
719.683
700.063
679.896
661.369
644.085
629.134
616.358
605.681
596.955
590.062
584.831
581.136
579.009
578.181
578.191
579.233
581.024
583.519
586.572
590.099
594.001
598.216
602.68
607.35
612.187
617.163
622.257
627.452
632.736
638.098
643.53
649.024
654.573
660.169
665.805
671.471
677.157
682.853
688.551
694.241
699.915
705.566
711.186
716.768
722.308
727.798
733.229
738.599
743.898
749.126
754.278
759.351
764.342
769.245
774.06
778.786
783.419
787.948
792.368
796.676
800.869
804.945
808.902
812.738
816.45
820.037
823.497
826.827
830.026
833.09
836.019
838.81
841.462
843.973
846.34
848.562
850.636
852.562
854.336
855.959
857.43
858.748
859.912
860.923
861.781
862.484
863.035
863.432
863.659
863.727
863.648
863.419
863.037
862.502
861.816
860.981
860
858.877
857.616
856.219
854.688
853.025
851.235
849.316
847.271
845.103
842.816
840.412
837.893
835.267
832.536
829.706
826.78
823.762
820.657
817.47
814.207
810.875
807.48
804.027
800.522
796.972
793.384
789.764
786.119
782.454
778.777
775.095
771.418
767.756
764.125
760.54
757.026
753.613
750.341
747.26
744.478
742.052
740.091
11463.2
3431.49
1311.86
673.271
445.376
346.784
294.359
262.081
240.4
224.03
211.068
200.333
191.227
183.417
176.859
171.721
168.257
166.612
166.949
169.582
174.572
183.211
196.955
217.113
249.379
297.474
359.892
427.881
489.143
543.866
591.216
631.83
665.895
695.165
713.325
718.881
712.834
699.47
684.407
667.93
652.368
636.859
622.226
607.984
594.915
583.166
573.104
564.66
557.791
552.416
548.455
545.884
544.696
544.466
545.281
546.928
549.388
552.527
556.26
560.494
565.15
570.159
575.46
581.001
586.742
592.651
598.7
604.872
611.15
617.518
623.963
630.474
637.041
643.653
650.304
656.99
663.692
670.4
677.102
683.787
690.446
697.07
703.649
710.175
716.636
723.018
729.327
735.56
741.709
747.77
753.736
759.605
765.372
771.034
776.586
782.024
787.343
792.539
797.608
802.548
807.355
812.028
816.563
820.959
825.215
829.327
833.295
837.117
840.791
844.314
847.684
850.899
853.957
856.858
859.598
862.175
864.588
866.835
868.912
870.819
872.554
874.117
875.507
876.724
877.769
878.64
879.339
879.865
880.216
880.376
880.372
880.195
879.85
879.336
878.653
877.803
876.789
875.614
874.282
872.796
871.159
869.375
867.445
865.373
863.161
860.811
858.327
855.711
852.967
850.098
847.108
844.004
840.791
837.472
834.051
830.535
826.929
823.242
819.479
815.647
811.753
807.802
803.802
799.759
795.682
791.578
787.451
783.311
779.166
775.026
770.902
766.808
762.76
758.778
754.889
751.123
747.52
744.172
741.081
738.082
11463.2
3035
1058.14
565.496
398.405
323.251
283.273
258.058
240.364
227.414
217.053
208.283
200.759
194.53
189.78
187.168
186.766
189.309
194.827
204.049
217.71
238.266
267.303
305.997
351.905
400.329
448.362
493.201
533.292
569.008
599.9
627.326
648.008
656.236
655.963
647.631
636.463
623.605
611.095
599.041
587.715
576.707
566.158
556.099
546.942
538.893
532.119
526.62
522.377
519.349
517.661
517.08
517.438
518.768
520.979
523.984
527.711
532.073
536.991
542.393
548.213
554.391
560.874
567.612
574.562
581.691
588.973
596.393
603.942
611.583
619.3
627.076
634.895
642.732
650.555
658.345
666.137
673.929
681.705
689.453
697.16
704.817
712.414
719.944
727.399
734.776
742.058
749.229
756.281
763.203
769.995
776.653
783.174
789.555
795.792
801.881
807.818
813.603
819.236
824.715
830.036
835.198
840.199
845.037
849.71
854.218
858.558
862.73
866.732
870.562
874.217
877.695
880.995
884.115
887.054
889.81
892.38
894.762
896.953
898.952
900.758
902.37
903.788
905.011
906.042
906.879
907.523
907.974
908.222
908.275
908.137
907.812
907.298
906.597
905.711
904.642
903.392
901.966
900.367
898.599
896.666
894.57
892.316
889.905
887.342
884.629
881.769
878.766
875.624
872.345
868.935
865.399
861.743
857.972
854.09
850.105
846.024
841.854
837.604
833.28
828.89
824.438
819.933
815.382
810.794
806.175
801.533
796.876
792.216
787.563
782.928
778.323
773.765
769.271
764.862
760.566
756.41
752.464
748.709
744.744
11463.2
2565.67
902.509
522.488
384.867
319.467
283.771
262.763
248.872
238.674
230.62
224.144
219.178
216.428
215.919
218.56
224.895
234.36
246.613
263.535
286.353
314.742
347.508
382.819
418.483
453.035
485.647
515.552
542.082
566.324
587.532
598.797
601.617
598.794
592.522
583.57
574.146
564.875
556.187
547.905
539.925
532.101
524.554
517.463
511.113
505.681
501.282
497.946
495.738
494.736
494.617
495.542
497.37
500.09
503.642
507.96
512.977
518.619
524.818
531.508
538.632
546.15
554.021
562.172
570.558
579.139
587.869
596.685
605.543
614.502
623.553
632.679
641.857
651.06
660.274
669.492
678.679
687.832
696.925
705.94
714.87
723.707
732.446
741.078
749.593
757.979
766.221
774.312
782.243
790.009
797.604
805.028
812.28
819.356
826.254
832.971
839.504
845.855
852.022
858.006
863.804
869.415
874.836
880.066
885.105
889.952
894.606
899.068
903.335
907.405
911.277
914.95
918.42
921.688
924.751
927.61
930.26
932.7
934.928
936.94
938.737
940.319
941.684
942.833
943.768
944.488
944.996
945.286
945.359
945.219
944.87
944.313
943.55
942.584
941.416
940.05
938.488
936.734
934.793
932.669
930.366
927.887
925.236
922.417
919.433
916.288
912.985
909.528
905.921
902.168
898.274
894.243
890.082
885.797
881.395
876.882
872.269
867.562
862.771
857.901
852.961
847.956
842.894
837.783
832.632
827.448
822.24
817.019
811.797
806.584
801.392
796.233
791.121
786.073
781.107
776.245
771.507
766.952
762.554
757.709
11463.2
2127.6
784.72
480.896
369.899
317.593
289.827
273.36
262.675
255.256
249.999
246.832
245.774
247.12
251.708
259.702
270.677
284.16
301.097
321.42
344.566
369.685
395.782
421.914
447.283
471.163
493.159
513.89
532.899
545.827
551.018
551.834
549.953
545.36
539.49
533.077
526.819
520.82
515.063
509.409
503.811
498.288
493.004
488.158
483.973
480.598
478.128
476.762
476.351
476.9
478.4
480.838
484.171
488.365
493.381
499.199
505.738
512.913
520.658
528.908
537.583
546.569
555.814
565.376
575.236
585.359
595.709
606.269
617.023
627.892
638.836
649.825
660.837
671.805
682.695
693.483
704.137
714.634
724.979
735.18
745.246
755.179
764.981
774.646
784.163
793.515
802.685
811.659
820.428
828.982
837.322
845.447
853.358
861.055
868.533
875.791
882.828
889.646
896.247
902.631
908.799
914.747
920.475
925.982
931.267
936.333
941.179
945.806
950.213
954.399
958.363
962.103
965.617
968.905
971.967
974.801
977.406
979.78
981.918
983.82
985.485
986.913
988.103
989.056
989.776
990.259
990.511
990.527
990.31
989.862
989.186
988.287
987.167
985.829
984.275
982.509
980.534
978.355
975.976
973.402
970.637
967.685
964.551
961.238
957.75
954.091
950.266
946.279
942.133
937.834
933.385
928.793
924.061
919.198
914.213
909.116
903.914
898.616
893.229
887.762
882.22
876.612
870.944
865.224
859.461
853.664
847.844
842.014
836.186
830.372
824.582
818.828
813.124
807.484
801.924
796.463
791.119
785.939
780.911
775.245
11463.2
1961.35
767.342
478.468
372.857
325.623
301.448
287.898
279.794
275.021
272.85
272.508
274.592
279.379
286.903
296.981
309.32
323.918
340.407
358.387
377.45
396.959
416.19
434.621
452.252
469.387
485.408
498.031
504.845
507.793
508.767
508.032
505.709
502.431
498.779
495.023
491.314
487.622
483.918
480.17
476.433
472.813
469.489
466.636
464.43
463.109
462.669
463.144
464.646
467.149
470.577
474.902
480.091
486.098
492.842
500.161
508.132
516.79
526.098
536
546.442
557.399
568.836
580.673
592.865
605.371
618.139
631.121
644.291
657.524
670.729
683.83
696.753
709.48
721.976
734.215
746.181
757.868
769.294
780.488
791.492
802.33
813.012
823.541
833.902
844.069
854.014
863.714
873.147
882.318
891.222
899.866
908.251
916.377
924.242
931.843
939.184
946.266
953.095
959.672
966
972.077
977.902
983.475
988.799
993.874
998.703
1003.29
1007.63
1011.73
1015.58
1019.19
1022.55
1025.67
1028.53
1031.15
1033.53
1035.65
1037.52
1039.13
1040.49
1041.59
1042.43
1043.02
1043.36
1043.45
1043.28
1042.87
1042.21
1041.3
1040.15
1038.77
1037.15
1035.3
1033.23
1030.93
1028.42
1025.69
1022.75
1019.61
1016.27
1012.74
1009.02
1005.11
1001.02
996.75
992.311
987.705
982.936
978.009
972.93
967.703
962.329
956.823
951.194
945.453
939.607
933.663
927.629
921.512
915.319
909.059
902.737
896.362
889.941
883.488
877.015
870.537
864.066
857.612
851.188
844.804
838.472
832.206
826.02
819.934
813.96
808.14
802.49
796.047
11463.2
1868.66
737.517
473.659
378.893
336.403
315.267
304.001
297.939
295.172
294.487
296.037
300.068
306.328
314.583
324.573
336.019
348.696
362.277
376.431
390.708
404.711
418.502
432.288
445.184
455.679
462.889
467.687
470.872
472.326
472.802
472.628
471.719
470.421
468.917
467.275
465.534
463.697
461.8
459.908
458.161
456.764
455.876
455.55
455.872
457.011
459.018
461.832
465.336
469.547
474.686
480.784
487.83
495.794
504.643
514.401
525.014
536.436
548.609
561.463
574.936
588.977
603.52
618.478
633.786
649.421
665.269
681.185
697.019
712.703
728.156
743.29
758.028
772.323
786.14
799.462
812.285
824.615
836.515
848.084
859.443
870.647
881.712
892.659
903.455
914.053
924.401
934.458
944.177
953.58
962.677
971.467
979.957
988.145
996.029
1003.61
1010.89
1017.87
1024.57
1030.98
1037.12
1042.98
1048.55
1053.86
1058.88
1063.64
1068.13
1072.35
1076.32
1080.03
1083.47
1086.66
1089.58
1092.24
1094.64
1096.77
1098.65
1100.27
1101.62
1102.7
1103.51
1104.06
1104.33
1104.33
1104.08
1103.56
1102.77
1101.72
1100.42
1098.86
1097.06
1095.01
1092.72
1090.19
1087.44
1084.45
1081.24
1077.82
1074.18
1070.33
1066.29
1062.04
1057.61
1052.98
1048.17
1043.19
1038.03
1032.71
1027.22
1021.58
1015.78
1009.84
1003.75
997.537
991.205
984.762
978.216
971.573
964.839
958.022
951.13
944.17
937.152
930.079
922.959
915.812
908.652
901.492
894.345
887.221
880.131
873.086
866.098
859.176
852.337
845.602
838.982
832.507
826.237
819.056
11463.2
1847.58
736.096
479.479
389.081
349.335
329.829
319.53
314.292
312.15
311.84
314.013
318.419
324.576
332.086
340.648
350.02
360.015
370.359
380.832
391.38
402.164
412.043
420.268
426.958
432.424
436.985
440.539
443.367
445.588
447.442
449.062
450.54
451.783
452.818
453.677
454.409
455.054
455.682
456.347
457.093
457.844
458.849
460.475
462.895
466.311
470.919
476.549
483.233
491.013
499.842
509.739
520.697
532.683
545.651
559.591
574.449
590.248
606.879
624.17
642.008
660.291
678.916
697.77
716.736
735.647
754.415
772.957
791.156
808.892
826.046
842.487
858.129
872.952
886.972
900.203
912.658
924.287
935.289
945.879
956.433
966.98
977.478
988.01
998.487
1008.8
1018.86
1028.62
1038.07
1047.19
1055.96
1064.39
1072.47
1080.22
1087.62
1094.67
1101.38
1107.77
1113.83
1119.59
1125.04
1130.19
1135.04
1139.6
1143.86
1147.84
1151.54
1154.96
1158.11
1161
1163.62
1165.98
1168.07
1169.89
1171.44
1172.73
1173.77
1174.54
1175.04
1175.25
1175.19
1174.89
1174.29
1173.41
1172.27
1170.86
1169.19
1167.25
1165.05
1162.59
1159.89
1156.93
1153.74
1150.31
1146.65
1142.76
1138.65
1134.32
1129.79
1125.05
1120.11
1114.97
1109.65
1104.15
1098.46
1092.61
1086.58
1080.4
1074.06
1067.57
1060.94
1054.17
1047.3
1040.31
1033.22
1026.02
1018.72
1011.32
1003.84
996.272
988.634
980.931
973.174
965.366
957.515
949.645
941.772
933.906
926.058
918.239
910.458
902.728
895.059
887.459
879.949
872.549
865.272
858.135
851.248
843.365
11463.7
1823.1
733.868
486.836
399.114
360.731
342.116
332.009
326.65
324.405
323.989
325.848
329.703
334.93
341.101
347.958
355.337
363.163
371.288
379.39
387.126
394.331
401.149
407.707
413.812
419.61
425.132
430.407
435.445
440.208
444.669
448.734
452.165
455.336
458.408
461.432
464.485
467.622
470.944
474.528
478.499
483.025
488.285
494.362
501.445
509.777
519.573
530.45
542.463
555.612
569.871
585.258
601.853
619.559
638.179
657.591
677.668
698.227
719.166
740.425
761.897
783.466
805.017
826.442
847.625
868.459
888.843
908.694
927.913
946.402
964.03
980.618
996.065
1010.48
1023.96
1036.58
1048.36
1059.33
1069.59
1079.24
1088.49
1097.47
1106.38
1115.72
1125.15
1134.41
1143.4
1152.06
1160.43
1168.44
1176.06
1183.31
1190.18
1196.67
1202.78
1208.51
1213.86
1218.87
1223.54
1227.9
1231.95
1235.69
1239.13
1242.27
1245.11
1247.67
1249.96
1251.98
1253.73
1255.25
1256.51
1257.51
1258.26
1258.74
1258.97
1258.93
1258.69
1258.19
1257.42
1256.38
1255.08
1253.52
1251.69
1249.59
1247.24
1244.63
1241.76
1238.63
1235.26
1231.64
1227.79
1223.69
1219.36
1214.8
1210.03
1205.04
1199.84
1194.43
1188.83
1183.03
1177.05
1170.89
1164.55
1158.03
1151.35
1144.51
1137.52
1130.37
1123.09
1115.66
1108.11
1100.43
1092.67
1084.81
1076.84
1068.78
1060.63
1052.38
1044.05
1035.65
1027.18
1018.65
1010.07
1001.47
992.855
984.236
975.621
967.019
958.439
949.891
941.388
932.942
924.565
916.262
908.062
899.983
892.036
884.226
876.716
868.166
11462.8
1808.17
735.312
492.381
405.89
368.475
350.105
339.866
334.387
332.047
331.536
333.101
336.567
341.282
346.986
353.395
360.303
367.564
374.976
382.656
390.458
398.271
405.931
413.599
421.232
428.947
436.746
444.689
452.747
460.757
468.757
476.765
484.93
493.21
501.651
510.298
519.229
528.503
538.224
548.469
559.36
571.013
583.528
596.902
611.194
626.382
642.264
659.126
677.009
695.856
715.638
736.386
757.891
779.913
802.414
825.282
848.382
871.558
894.662
917.576
940.179
962.384
984.103
1005.26
1025.8
1045.65
1064.77
1083.1
1100.64
1117.31
1133.12
1148.03
1161.92
1174.84
1186.95
1198.33
1209
1219
1228.33
1237.04
1245.01
1252.52
1260.16
1267.87
1275.33
1282.43
1289.13
1295.43
1301.34
1306.86
1312
1316.76
1321.16
1325.2
1328.88
1332.19
1335.15
1337.84
1340.24
1342.37
1344.23
1345.83
1347.17
1348.25
1349.08
1349.67
1350.04
1350.17
1350.06
1349.82
1349.36
1348.66
1347.73
1346.58
1345.21
1343.62
1341.83
1339.82
1337.58
1335.1
1332.39
1329.44
1326.26
1322.83
1319.18
1315.29
1311.18
1306.84
1302.27
1297.49
1292.48
1287.27
1281.84
1276.21
1270.39
1264.37
1258.17
1251.78
1245.22
1238.48
1231.58
1224.51
1217.28
1209.9
1202.36
1194.68
1186.86
1178.9
1170.8
1162.58
1154.23
1145.77
1137.19
1128.52
1119.74
1110.87
1101.9
1092.85
1083.72
1074.52
1065.26
1055.94
1046.59
1037.21
1027.83
1018.46
1009.09
999.737
990.408
981.116
971.875
962.699
953.604
944.619
935.753
927.018
918.423
909.964
901.846
892.695
11461.8
1798.9
737.881
495.293
409.29
373.787
355.813
346.209
341.437
339.781
339.864
342.479
346.78
352.376
358.935
366.485
375.046
384.046
393.345
403.454
414.487
426.447
438.636
451.518
465.108
479.472
494.537
510.287
526.57
543.455
560.894
578.854
597.315
616.115
635.188
654.504
674.078
693.926
714.127
734.806
755.891
777.365
799.235
821.422
843.877
866.516
889.298
912.608
936.475
960.524
984.612
1008.47
1031.86
1054.87
1077.43
1099.49
1120.95
1141.73
1161.76
1180.99
1199.39
1216.94
1233.62
1249.43
1264.35
1278.41
1291.58
1303.92
1315.42
1326.13
1336.08
1345.5
1354.52
1363.1
1371.14
1378.63
1385.5
1391.48
1397.04
1402.34
1407.52
1412.95
1418.32
1422.95
1426.88
1430.28
1433.26
1435.87
1438.15
1440.12
1441.79
1443.17
1444.25
1445.05
1445.58
1445.82
1445.78
1445.7
1445.38
1444.87
1444.18
1443.3
1442.25
1441.03
1439.64
1438.1
1436.41
1434.56
1432.57
1430.45
1428.17
1425.72
1423.11
1420.33
1417.39
1414.27
1411
1407.54