/*--------------------------------*- C++ -*----------------------------------*\
  =========                 |
  \\      /  F ield         | OpenFOAM: The Open Source CFD Toolbox
   \\    /   O peration     | Website:  https://openfoam.org
    \\  /    A nd           | Version:  13
     \\/     M anipulation  |
\*---------------------------------------------------------------------------*/
FoamFile
{
    format      ascii;
    class       volScalarField;
    location    "1500";
    object      p;
}
// * * * * * * * * * * * * * * * * * * * * * * * * * * * * * * * * * * * * * //

dimensions      [0 2 -2 0 0 0 0];

internalField   nonuniform List<scalar> 
12225
(
-4.31726
-5.17644
-5.57749
-5.71924
-5.86439
-6.03383
-6.19014
-6.32007
-6.42868
-6.52386
-6.61013
-6.68214
-6.74127
-6.79479
-6.84647
-6.90174
-6.96962
-7.06239
-4.58685
-5.21477
-5.55493
-5.69142
-5.83673
-6.00759
-6.16205
-6.28824
-6.3966
-6.49107
-6.57305
-6.64543
-6.70701
-6.75981
-6.81301
-6.8721
-6.93485
-6.98315
-4.7616
-5.20639
-5.53355
-5.69986
-5.85066
-6.01525
-6.16486
-6.28836
-6.39321
-6.48488
-6.56427
-6.63355
-6.69341
-6.74666
-6.80028
-6.8562
-6.90878
-6.9452
-4.89533
-5.22217
-5.534
-5.71396
-5.85839
-6.01031
-6.15262
-6.27286
-6.37526
-6.46488
-6.54329
-6.61229
-6.67317
-6.72855
-6.78248
-6.83523
-6.88302
-6.91801
-5.02615
-5.26767
-5.5476
-5.72779
-5.86625
-6.00868
-6.14581
-6.2642
-6.36525
-6.45362
-6.53152
-6.60054
-6.66184
-6.71742
-6.76981
-6.81934
-6.86386
-6.89871
-5.14294
-5.32488
-5.56391
-5.73886
-5.8739
-6.0087
-6.13986
-6.25481
-6.35332
-6.43954
-6.516
-6.58407
-6.6448
-6.6998
-6.75088
-6.79842
-6.84113
-6.87616
-5.24691
-5.38662
-5.58879
-5.75401
-5.88455
-6.01175
-6.13599
-6.24661
-6.34237
-6.42661
-6.50174
-6.56899
-6.62935
-6.6841
-6.73453
-6.7809
-6.82249
-6.8576
-5.34052
-5.44663
-5.61938
-5.77248
-5.8973
-6.01717
-6.1342
-6.24006
-6.33278
-6.41481
-6.48831
-6.55441
-6.61402
-6.66812
-6.71764
-6.7628
-6.80324
-6.83798
-5.42577
-5.5047
-5.65258
-5.7934
-5.91227
-6.02512
-6.135
-6.23574
-6.32506
-6.40462
-6.47625
-6.54098
-6.59953
-6.65272
-6.70121
-6.74522
-6.78467
-6.81902
-5.50228
-5.56301
-5.68756
-5.8158
-5.92797
-6.03381
-6.13672
-6.23226
-6.31805
-6.39504
-6.46469
-6.52787
-6.58516
-6.63724
-6.68461
-6.72751
-6.76607
-6.79999
-5.5699
-5.61856
-5.72259
-5.83772
-5.94256
-6.04166
-6.13804
-6.22852
-6.31079
-6.3852
-6.45283
-6.51438
-6.57036
-6.62127
-6.66756
-6.70951
-6.74731
-6.78082
-5.62546
-5.66574
-5.75397
-5.85724
-5.95499
-6.04811
-6.13882
-6.22477
-6.30379
-6.37581
-6.44157
-6.50163
-6.55639
-6.60625
-6.65162
-6.69277
-6.72997
-6.76311
-5.67546
-5.70932
-5.78426
-5.87633
-5.96697
-6.05429
-6.13957
-6.22108
-6.29685
-6.36646
-6.43034
-6.48888
-6.54241
-6.59125
-6.63575
-6.67619
-6.71283
-6.74564
-5.7266
-5.75469
-5.81726
-5.8978
-5.98045
-6.06135
-6.14073
-6.21732
-6.28934
-6.35613
-6.41776
-6.47452
-6.52659
-6.57425
-6.6178
-6.65746
-6.69353
-6.72601
-5.77672
-5.79981
-5.85156
-5.92092
-5.99505
-6.06909
-6.14231
-6.21361
-6.28147
-6.345
-6.40408
-6.45875
-6.50919
-6.55554
-6.59804
-6.63692
-6.67241
-6.70456
-5.82282
-5.84178
-5.8846
-5.94389
-6.00958
-6.0767
-6.14378
-6.20973
-6.2732
-6.33327
-6.38955
-6.442
-6.49066
-6.53562
-6.57705
-6.61511
-6.65005
-6.6819
-5.86067
-5.87649
-5.9125
-5.96357
-6.02177
-6.08251
-6.14395
-6.20492
-6.26419
-6.32084
-6.37437
-6.42461
-6.47151
-6.5151
-6.55547
-6.59277
-6.62718
-6.65881
-5.88415
-5.89793
-5.92956
-5.97507
-6.02784
-6.0837
-6.14074
-6.19777
-6.25364
-6.30746
-6.35868
-6.40704
-6.45243
-6.49484
-6.53433
-6.57102
-6.60503
-6.63652
-5.8836
-5.89678
-5.92717
-5.97094
-6.0217
-6.07548
-6.13047
-6.18561
-6.23977
-6.29211
-6.34205
-6.38936
-6.4339
-6.4757
-6.51475
-6.55121
-6.58516
-6.6168
-5.85106
-5.86593
-5.89992
-5.94745
-6.00125
-6.05694
-6.11364
-6.16997
-6.22526
-6.27821
-6.3287
-6.37628
-6.4211
-6.46309
-6.50237
-6.5391
-6.57334
-6.60542
-5.80428
-5.82236
-5.86279
-5.91752
-5.97664
-6.03648
-6.09625
-6.15564
-6.21303
-6.26785
-6.31952
-6.36816
-6.41368
-6.45626
-6.49603
-6.53314
-6.56787
-6.60027
-5.74429
-5.76788
-5.81892
-5.88376
-5.95008
-6.01496
-6.07934
-6.14245
-6.20288
-6.25979
-6.31311
-6.363
-6.40947
-6.45272
-6.49297
-6.53055
-6.56571
-6.59865
-5.67321
-5.70573
-5.77212
-5.84965
-5.92355
-5.99418
-6.0638
-6.13134
-6.19487
-6.25388
-6.30877
-6.35984
-6.40726
-6.4512
-6.49188
-6.52976
-6.56512
-6.59827
-5.59183
-5.63797
-5.72599
-5.81762
-5.8982
-5.97431
-6.05014
-6.12276
-6.18954
-6.25043
-6.30651
-6.35833
-6.40639
-6.45071
-6.49185
-6.53013
-6.5658
-6.59939
-5.50004
-5.56704
-5.68318
-5.78956
-5.87499
-5.956
-6.03793
-6.11584
-6.18624
-6.24963
-6.30733
-6.36015
-6.40811
-6.45213
-6.49284
-6.53083
-6.56652
-6.59954
-5.39747
-5.49538
-5.64627
-5.76724
-5.85685
-5.94248
-6.0295
-6.11097
-6.18379
-6.24905
-6.30889
-6.36365
-6.41278
-6.4568
-6.49724
-6.53507
-6.57043
-6.60404
-5.28423
-5.42778
-5.61311
-5.74252
-5.83877
-5.93367
-6.02736
-6.1116
-6.18536
-6.25112
-6.31108
-6.36644
-6.41547
-6.45918
-6.49872
-6.5352
-6.56957
-6.6029
-5.1529
-5.38749
-5.59541
-5.71359
-5.81306
-5.9209
-6.02485
-6.11472
-6.19193
-6.26047
-6.3226
-6.37848
-6.42792
-6.47173
-6.51066
-6.54561
-6.57784
-6.61113
-4.95962
-5.36733
-5.60941
-5.70518
-5.79655
-5.90909
-6.01715
-6.10835
-6.18581
-6.25522
-6.31879
-6.37562
-6.42571
-6.4698
-6.50824
-6.54128
-6.57029
-6.59727
-4.70092
-5.2922
-5.60032
-5.70679
-5.80451
-5.925
-6.03818
-6.13107
-6.20784
-6.27611
-6.33914
-6.39639
-6.44635
-6.4892
-6.52583
-6.5559
-6.58075
-6.59975
-7.53113
-7.53123
-7.53128
-7.5313
-7.53109
-7.53008
-7.52779
-7.5246
-7.52145
-7.51926
-7.51908
-7.52121
-7.52526
-7.5305
-7.53618
-7.54162
-7.54625
-7.54965
-7.55168
-7.55261
-7.55273
-7.55223
-7.55133
-7.55031
-7.54941
-7.54879
-7.54845
-7.54827
-7.54809
-7.54777
-7.54728
-7.54664
-7.54585
-7.54481
-7.54349
-7.54201
-7.54072
-7.54029
-7.54123
-7.54344
-7.54621
-7.54877
-7.55089
-7.5528
-7.55488
-7.55747
-7.56087
-7.56453
-7.56767
-7.5703
-7.57476
-7.58495
-7.60447
-7.63288
-7.66892
-7.71293
-7.76605
-7.82774
-7.8959
-7.96864
-8.04368
-8.11922
-8.19333
-8.26497
-8.33314
-8.39718
-8.45647
-8.51105
-8.56066
-8.60547
-8.64537
-8.68054
-8.71091
-8.7366
-8.75751
-8.77373
-8.78512
-8.79171
-8.79341
-8.7902
-8.78202
-8.76884
-8.75063
-8.72729
-8.69886
-8.66523
-8.6265
-8.58265
-8.53378
-8.47983
-8.42061
-8.3561
-8.28629
-8.21121
-8.13088
-8.04534
-7.95461
-7.85874
-7.75778
-7.65176
-7.54059
-7.42409
-7.30228
-7.17526
-7.04314
-6.90594
-6.76372
-6.61646
-6.46419
-6.3069
-6.14463
-5.9774
-5.80528
-5.62831
-5.44661
-5.26024
-5.06933
-4.87394
-4.67417
-4.47011
-4.26189
-4.04967
-3.83362
-3.61393
-3.39075
-3.16425
-2.93457
-2.70191
-2.46641
-2.22829
-1.9877
-1.74485
-1.4999
-1.25307
-1.00453
-0.754516
-0.503216
-0.250814
0.00285399
0.257693
0.513358
0.769585
1.02619
1.283
1.53986
1.79659
2.053
2.30892
2.56417
2.81856
3.0719
3.32399
3.57465
3.82366
4.07084
4.31596
4.55886
4.79934
5.03724
5.27238
5.50463
5.73384
5.95988
6.18263
6.40197
6.61778
6.82995
7.0384
7.24301
7.44371
7.64043
7.83308
8.0216
8.20594
8.38604
8.56188
8.73363
8.90127
9.06788
9.22441
-7.53221
-7.53239
-7.53275
-7.53316
-7.53322
-7.53253
-7.53076
-7.52837
-7.52651
-7.52617
-7.52773
-7.53109
-7.5358
-7.54124
-7.5468
-7.55196
-7.55633
-7.55969
-7.56186
-7.56264
-7.56206
-7.56039
-7.55802
-7.5554
-7.55295
-7.55096
-7.54954
-7.54858
-7.54785
-7.54719
-7.54657
-7.54599
-7.5454
-7.54468
-7.54371
-7.54264
-7.542
-7.54246
-7.54431
-7.54708
-7.5498
-7.55158
-7.55236
-7.55263
-7.55224
-7.55143
-7.55187
-7.55605
-7.56288
-7.56894
-7.57604
-7.58733
-7.60376
-7.62745
-7.66189
-7.70919
-7.76773
-7.83454
-7.90702
-7.9828
-8.05962
-8.13549
-8.20917
-8.27961
-8.34555
-8.4069
-8.46366
-8.51581
-8.56333
-8.60632
-8.64476
-8.67873
-8.70819
-8.73318
-8.75362
-8.7695
-8.78072
-8.78725
-8.78901
-8.78592
-8.77795
-8.76502
-8.74711
-8.72414
-8.69609
-8.66291
-8.62464
-8.58128
-8.53292
-8.47948
-8.42083
-8.35693
-8.2878
-8.21344
-8.13385
-8.04905
-7.95902
-7.86376
-7.76324
-7.65741
-7.54633
-7.43016
-7.30894
-7.18268
-7.05136
-6.91501
-6.77362
-6.62722
-6.47579
-6.31935
-6.15792
-5.99154
-5.82026
-5.64413
-5.46323
-5.27767
-5.08753
-4.89291
-4.6939
-4.49057
-4.28307
-4.07155
-3.85619
-3.63715
-3.4146
-3.18869
-2.9596
-2.72749
-2.49255
-2.25493
-2.01483
-1.77241
-1.52787
-1.28137
-1.03309
-0.783185
-0.531752
-0.278939
-0.0251082
0.229527
0.484931
0.740905
0.997276
1.25388
1.51055
1.76712
2.0234
2.27922
2.53439
2.78873
3.04206
3.29417
3.54488
3.79397
4.04127
4.28655
4.52964
4.77034
5.00849
5.24391
5.47645
5.70597
5.93234
6.15543
6.37513
6.59131
6.80388
7.01272
7.21776
7.41889
7.61605
7.80917
7.9982
8.18312
8.36394
8.54061
8.71346
8.88176
9.05073
9.20675
-7.53342
-7.53342
-7.53348
-7.53359
-7.53369
-7.53371
-7.53383
-7.53456
-7.53641
-7.53956
-7.54386
-7.54899
-7.55454
-7.56009
-7.56526
-7.56974
-7.57332
-7.57586
-7.5773
-7.57757
-7.57665
-7.57466
-7.57175
-7.56811
-7.56398
-7.55962
-7.55531
-7.55132
-7.54787
-7.54508
-7.54293
-7.54127
-7.53982
-7.53844
-7.53735
-7.53705
-7.53817
-7.54105
-7.54513
-7.54896
-7.55087
-7.55008
-7.54794
-7.54651
-7.54669
-7.54746
-7.54926
-7.55509
-7.56557
-7.58013
-7.5997
-7.62496
-7.65617
-7.69391
-7.73895
-7.79133
-7.84979
-7.91262
-7.97824
-8.04523
-8.11229
-8.17836
-8.24265
-8.30459
-8.36348
-8.419
-8.47095
-8.51917
-8.56355
-8.60404
-8.64054
-8.673
-8.70133
-8.72547
-8.74533
-8.76082
-8.77183
-8.77829
-8.78008
-8.77714
-8.76939
-8.75676
-8.73919
-8.71661
-8.689
-8.65631
-8.61853
-8.57571
-8.52788
-8.47499
-8.41691
-8.35363
-8.28515
-8.21148
-8.13261
-8.04854
-7.95927
-7.8648
-7.76513
-7.66027
-7.55023
-7.43509
-7.31488
-7.18963
-7.05934
-6.92403
-6.78369
-6.63835
-6.48798
-6.33262
-6.17227
-6.00698
-5.83678
-5.66173
-5.4819
-5.2974
-5.1083
-4.91471
-4.7167
-4.51437
-4.30785
-4.09729
-3.88286
-3.66473
-3.44306
-3.21801
-2.98975
-2.75844
-2.52427
-2.2874
-2.04802
-1.80629
-1.56241
-1.31655
-1.0689
-0.819619
-0.568835
-0.316668
-0.0634048
0.190749
0.445679
0.701196
0.957141
1.21335
1.46966
1.72589
1.98188
2.23743
2.49238
2.74653
2.9997
3.2517
3.50233
3.75139
3.99869
4.24403
4.4872
4.72802
4.96631
5.20191
5.43466
5.6644
5.891
6.11433
6.33427
6.55071
6.76353
6.97264
7.17793
7.37932
7.57675
7.77014
7.95944
8.1446
8.32565
8.50262
8.67609
8.84479
9.01648
9.1682
-7.53441
-7.53417
-7.53383
-7.53381
-7.53478
-7.5372
-7.54099
-7.54581
-7.55133
-7.55724
-7.56327
-7.56917
-7.57474
-7.57977
-7.58409
-7.58757
-7.5901
-7.5916
-7.59204
-7.59139
-7.58966
-7.58689
-7.58318
-7.5786
-7.57324
-7.56723
-7.56071
-7.55395
-7.54725
-7.54096
-7.53538
-7.53069
-7.52705
-7.52472
-7.52426
-7.52625
-7.5305
-7.53572
-7.54015
-7.54268
-7.54315
-7.54233
-7.5419
-7.54304
-7.54637
-7.55253
-7.56237
-7.57686
-7.5966
-7.62162
-7.65165
-7.68623
-7.72514
-7.76815
-7.81509
-7.8657
-7.91953
-7.97593
-8.03413
-8.09334
-8.15271
-8.21154
-8.26918
-8.32509
-8.3788
-8.42997
-8.47828
-8.52354
-8.56551
-8.60407
-8.63905
-8.67034
-8.69779
-8.72129
-8.74071
-8.75592
-8.7668
-8.77323
-8.7751
-8.77231
-8.76478
-8.75243
-8.73517
-8.71296
-8.68575
-8.65348
-8.61616
-8.57379
-8.52644
-8.47401
-8.41645
-8.35372
-8.28582
-8.21277
-8.13455
-8.05116
-7.96259
-7.86886
-7.76996
-7.6659
-7.55674
-7.44251
-7.32323
-7.19892
-7.0696
-6.93527
-6.79592
-6.65157
-6.50221
-6.34785
-6.18853
-6.02426
-5.85508
-5.68106
-5.50225
-5.31874
-5.13063
-4.93801
-4.74095
-4.53956
-4.33397
-4.12432
-3.91078
-3.69352
-3.4727
-3.24846
-3.021
-2.79046
-2.55703
-2.32088
-2.0822
-1.84114
-1.59791
-1.35267
-1.10563
-0.856926
-0.606717
-0.355148
-0.102439
0.15122
0.405668
0.660731
0.916249
1.17206
1.42801
1.68391
1.93959
2.19488
2.44958
2.70354
2.95655
3.20842
3.45897
3.708
3.95529
4.20066
4.4439
4.68483
4.92325
5.15902
5.39195
5.62189
5.84871
6.07228
6.29246
6.50914
6.72221
6.93155
7.13708
7.3387
7.53634
7.72994
7.91947
8.10488
8.28621
8.46347
8.63731
8.80593
8.97838
9.12375
-7.53644
-7.53592
-7.53552
-7.53665
-7.54043
-7.54637
-7.55345
-7.56091
-7.56827
-7.57525
-7.58167
-7.58747
-7.59259
-7.59696
-7.6005
-7.60313
-7.60477
-7.60538
-7.60493
-7.60339
-7.60076
-7.59708
-7.59238
-7.58672
-7.58016
-7.57275
-7.56458
-7.55578
-7.54662
-7.53747
-7.52889
-7.52151
-7.51612
-7.51364
-7.51466
-7.51834
-7.52292
-7.52726
-7.5308
-7.53339
-7.5355
-7.53802
-7.54214
-7.54886
-7.5593
-7.57427
-7.59384
-7.61748
-7.64492
-7.67594
-7.71017
-7.74743
-7.78763
-7.83067
-7.87644
-7.92472
-7.97515
-8.0273
-8.08064
-8.13464
-8.18874
-8.24243
-8.29523
-8.34669
-8.39643
-8.44412
-8.48946
-8.5322
-8.5721
-8.60895
-8.64257
-8.67277
-8.69938
-8.72224
-8.74118
-8.75604
-8.76669
-8.77299
-8.7748
-8.77202
-8.76455
-8.7523
-8.73519
-8.71316
-8.68615
-8.65412
-8.61705
-8.57496
-8.52787
-8.47575
-8.4185
-8.35612
-8.28861
-8.21599
-8.13824
-8.05535
-7.96734
-7.8742
-7.77594
-7.67257
-7.56413
-7.45062
-7.33211
-7.20858
-7.08007
-6.94654
-6.80802
-6.66448
-6.51597
-6.36244
-6.20397
-6.04054
-5.87222
-5.69903
-5.52107
-5.33839
-5.15109
-4.95926
-4.76298
-4.56235
-4.35751
-4.14861
-3.9358
-3.71924
-3.4991
-3.27553
-3.0487
-2.8188
-2.58598
-2.35043
-2.11231
-1.87182
-1.62912
-1.38442
-1.13787
-0.889653
-0.639901
-0.388801
-0.136542
0.116683
0.370709
0.625372
0.880519
1.13599
1.39161
1.64722
1.90264
2.15769
2.4122
2.66599
2.91887
3.17064
3.42114
3.67013
3.91743
4.16284
4.40615
4.64717
4.88573
5.12164
5.35475
5.58488
5.81192
6.0357
6.2561
6.47301
6.6863
6.89588
7.10163
7.30349
7.50136
7.69519
7.88493
8.07056
8.2521
8.42947
8.60334
8.77132
8.94337
9.08181
-7.54036
-7.53949
-7.53982
-7.54379
-7.55082
-7.55909
-7.56757
-7.57574
-7.58332
-7.59021
-7.5964
-7.60188
-7.60658
-7.61046
-7.61344
-7.61545
-7.61644
-7.61638
-7.61524
-7.61301
-7.60968
-7.60529
-7.59985
-7.59337
-7.58585
-7.57733
-7.56794
-7.55782
-7.54722
-7.53661
-7.52676
-7.51859
-7.51326
-7.51135
-7.51207
-7.51401
-7.51649
-7.51958
-7.52355
-7.5286
-7.53467
-7.54234
-7.55297
-7.56746
-7.58594
-7.60811
-7.63362
-7.66218
-7.69345
-7.72729
-7.76346
-7.80186
-7.84238
-7.88493
-7.92939
-7.97558
-8.02322
-8.07204
-8.12165
-8.17172
-8.22183
-8.27164
-8.32076
-8.36884
-8.41552
-8.46052
-8.50352
-8.54427
-8.5825
-8.61797
-8.65047
-8.67977
-8.70566
-8.72796
-8.74645
-8.76098
-8.77136
-8.77745
-8.77912
-8.77623
-8.76868
-8.75638
-8.73924
-8.71721
-8.69021
-8.65822
-8.62121
-8.57918
-8.5322
-8.48015
-8.42303
-8.3608
-8.29349
-8.2211
-8.14362
-8.06105
-7.97339
-7.88065
-7.78284
-7.67996
-7.57204
-7.4591
-7.34116
-7.21825
-7.09035
-6.95746
-6.81957
-6.67669
-6.52882
-6.37596
-6.21814
-6.05538
-5.88772
-5.71519
-5.53787
-5.35583
-5.16916
-4.97792
-4.78223
-4.58218
-4.37791
-4.16956
-3.9573
-3.74127
-3.52164
-3.29857
-3.07223
-2.8428
-2.61044
-2.37535
-2.13767
-1.89762
-1.65535
-1.41106
-1.16493
-0.917097
-0.667729
-0.417011
-0.165136
0.0877114
0.341372
0.59569
0.850512
1.10567
1.36102
1.61636
1.87155
2.1264
2.38074
2.63438
2.88715
3.13884
3.38929
3.63826
3.88557
4.13101
4.37438
4.61549
4.85415
5.0902
5.32345
5.55375
5.78095
6.00491
6.22551
6.44262
6.65611
6.86588
7.07183
7.27387
7.47191
7.6659
7.85579
8.04153
8.22312
8.40041
8.57401
8.74105
8.91246
9.04407
-7.54544
-7.5449
-7.54717
-7.55392
-7.56253
-7.57124
-7.57957
-7.58738
-7.59461
-7.60122
-7.60716
-7.61237
-7.61678
-7.6203
-7.62289
-7.62448
-7.62503
-7.62451
-7.62291
-7.62021
-7.61643
-7.61158
-7.60563
-7.59851
-7.59026
-7.58103
-7.57101
-7.56042
-7.54958
-7.53908
-7.52981
-7.52277
-7.51829
-7.51558
-7.51401
-7.51374
-7.51521
-7.51884
-7.52444
-7.53212
-7.54259
-7.55634
-7.57344
-7.59374
-7.6171
-7.64326
-7.67192
-7.70292
-7.73608
-7.77129
-7.80834
-7.84714
-7.88753
-7.92944
-7.97272
-8.01726
-8.06284
-8.10927
-8.15629
-8.20365
-8.25104
-8.29818
-8.34476
-8.39048
-8.43503
-8.47813
-8.51947
-8.5588
-8.59584
-8.63032
-8.662
-8.69064
-8.71599
-8.73784
-8.75597
-8.77018
-8.78029
-8.78614
-8.78758
-8.78448
-8.77674
-8.76425
-8.74694
-8.72473
-8.69758
-8.66543
-8.62828
-8.58614
-8.53903
-8.48692
-8.42972
-8.36745
-8.30014
-8.22779
-8.1504
-8.06796
-7.98047
-7.88795
-7.79039
-7.68783
-7.58025
-7.46771
-7.35018
-7.22772
-7.10026
-6.96785
-6.83044
-6.68805
-6.54066
-6.38831
-6.23098
-6.06872
-5.90154
-5.72951
-5.55266
-5.3711
-5.18487
-4.99407
-4.79879
-4.59916
-4.39529
-4.18734
-3.97546
-3.75981
-3.54055
-3.31783
-3.09184
-2.86275
-2.63074
-2.39596
-2.15863
-1.9189
-1.67698
-1.43303
-1.18723
-0.939709
-0.690668
-0.440283
-0.188744
0.0637723
0.317113
0.571127
0.82566
1.08056
1.33565
1.59077
1.84575
2.10042
2.35459
2.60811
2.86078
3.11242
3.36282
3.61178
3.8591
4.10457
4.34798
4.58916
4.8279
5.06404
5.29741
5.52784
5.75519
5.97931
6.20006
6.41732
6.63096
6.84087
7.04695
7.2491
7.44726
7.64134
7.83129
8.01703
8.19856
8.37561
8.54878
8.71477
8.88557
9.01073
-7.54965
-7.55021
-7.55499
-7.56303
-7.5715
-7.57964
-7.58742
-7.59481
-7.60175
-7.60814
-7.61389
-7.6189
-7.62311
-7.62642
-7.62878
-7.63014
-7.63044
-7.62968
-7.62783
-7.6249
-7.62089
-7.61577
-7.60943
-7.60194
-7.5935
-7.58429
-7.57444
-7.56423
-7.55419
-7.54512
-7.53764
-7.53166
-7.52648
-7.522
-7.51913
-7.51849
-7.52018
-7.52475
-7.53266
-7.54393
-7.55849
-7.57612
-7.59672
-7.62005
-7.6459
-7.67407
-7.70436
-7.73663
-7.77073
-7.80653
-7.84388
-7.88267
-7.9228
-7.96417
-8.00664
-8.05011
-8.09441
-8.13938
-8.18482
-8.23053
-8.27625
-8.32176
-8.36678
-8.41105
-8.45429
-8.49622
-8.53656
-8.57502
-8.61133
-8.64522
-8.6764
-8.70463
-8.72963
-8.75118
-8.76903
-8.78297
-8.79282
-8.7984
-8.79955
-8.79616
-8.78811
-8.7753
-8.75767
-8.73514
-8.70766
-8.6752
-8.63773
-8.59528
-8.54789
-8.49548
-8.43804
-8.37555
-8.30807
-8.23559
-8.15811
-8.07563
-7.98816
-7.89569
-7.79825
-7.69582
-7.58845
-7.47613
-7.35889
-7.2367
-7.10957
-6.97747
-6.84041
-6.69836
-6.55133
-6.39934
-6.24237
-6.08047
-5.91365
-5.74196
-5.56546
-5.38422
-5.1983
-5.0078
-4.8128
-4.61344
-4.40985
-4.20216
-3.99053
-3.77513
-3.5561
-3.33362
-3.10787
-2.87901
-2.64723
-2.4127
-2.17561
-1.93614
-1.69448
-1.4508
-1.20526
-0.958012
-0.709251
-0.459164
-0.207931
0.0442852
0.297336
0.551071
0.80534
1.05999
1.31484
1.56975
1.82454
2.07903
2.33307
2.58647
2.83905
3.09063
3.341
3.58995
3.83727
4.08275
4.3262
4.56743
4.80624
5.04247
5.27594
5.50649
5.73397
5.95822
6.17912
6.3965
6.61025
6.82027
7.02644
7.22867
7.42689
7.62101
7.81096
7.99666
8.17803
8.35477
8.52743
8.69234
8.86259
8.98187
-7.55117
-7.55324
-7.55974
-7.5677
-7.57551
-7.58311
-7.59052
-7.59767
-7.60443
-7.6107
-7.61637
-7.62133
-7.62548
-7.62875
-7.63106
-7.63237
-7.63264
-7.63186
-7.63
-7.62706
-7.62302
-7.61781
-7.61141
-7.60405
-7.59593
-7.58719
-7.57812
-7.56917
-7.56082
-7.55334
-7.54659
-7.5403
-7.53446
-7.52963
-7.5268
-7.52666
-7.52967
-7.53615
-7.54615
-7.55943
-7.57589
-7.59528
-7.61741
-7.64206
-7.66902
-7.6981
-7.72915
-7.762
-7.79653
-7.83259
-7.87007
-7.90888
-7.94889
-7.99001
-8.0321
-8.07506
-8.11874
-8.16302
-8.2077
-8.25261
-8.29754
-8.34227
-8.38656
-8.43016
-8.4728
-8.51422
-8.55413
-8.59225
-8.62828
-8.66194
-8.69293
-8.72098
-8.74583
-8.7672
-8.78486
-8.79858
-8.80816
-8.81342
-8.81423
-8.81045
-8.80199
-8.78875
-8.77067
-8.74767
-8.71971
-8.68676
-8.64881
-8.60589
-8.55803
-8.50521
-8.44733
-8.38447
-8.31666
-8.2439
-8.16619
-8.08352
-7.99592
-7.90336
-7.80589
-7.70347
-7.59616
-7.48394
-7.36685
-7.24483
-7.1179
-6.986
-6.84916
-6.70734
-6.56057
-6.40882
-6.25211
-6.09045
-5.92389
-5.75244
-5.57618
-5.39514
-5.20943
-5.01911
-4.82429
-4.6251
-4.42167
-4.21413
-4.00266
-3.7874
-3.56851
-3.34618
-3.12057
-2.89188
-2.66025
-2.42589
-2.18898
-1.94971
-1.70825
-1.46479
-1.21946
-0.972452
-0.723944
-0.474128
-0.223173
0.0287693
0.281552
0.535027
0.789047
1.04345
1.29809
1.55279
1.80739
2.06172
2.31562
2.5689
2.82139
3.07292
3.32326
3.57219
3.8195
4.06499
4.30847
4.54974
4.78861
5.02491
5.25847
5.48912
5.7167
5.94108
6.16208
6.37956
6.59339
6.80348
7.00971
7.21199
7.41022
7.60434
7.79426
7.97985
8.16102
8.33739
8.50949
8.67336
8.84311
8.95716
-7.54852
-7.55197
-7.55889
-7.56635
-7.57377
-7.58115
-7.58842
-7.59551
-7.60228
-7.60861
-7.61437
-7.61945
-7.62375
-7.62719
-7.62967
-7.63116
-7.63161
-7.63098
-7.62927
-7.62645
-7.62251
-7.61743
-7.61134
-7.60444
-7.59699
-7.58924
-7.58149
-7.5739
-7.56652
-7.5594
-7.55262
-7.54628
-7.54079
-7.53678
-7.53501
-7.53601
-7.54015
-7.5476
-7.55843
-7.57249
-7.58963
-7.60965
-7.63232
-7.65742
-7.68478
-7.71421
-7.74556
-7.77868
-7.81343
-7.84971
-7.88739
-7.92636
-7.96649
-8.00769
-8.04982
-8.09279
-8.13646
-8.18068
-8.2253
-8.27014
-8.31499
-8.35967
-8.40393
-8.44753
-8.4902
-8.53168
-8.57168
-8.60991
-8.64604
-8.67979
-8.71084
-8.73892
-8.76373
-8.78502
-8.80252
-8.81602
-8.82531
-8.83022
-8.83061
-8.82638
-8.81741
-8.80364
-8.78499
-8.7614
-8.73283
-8.69926
-8.66068
-8.61713
-8.56869
-8.51525
-8.45683
-8.39345
-8.32517
-8.252
-8.17392
-8.09096
-8.00309
-7.91033
-7.8127
-7.7102
-7.60284
-7.49064
-7.37358
-7.25163
-7.12479
-6.99302
-6.85631
-6.71465
-6.56803
-6.41645
-6.25992
-6.09843
-5.93204
-5.76075
-5.58464
-5.40374
-5.21814
-5.02792
-4.8332
-4.63409
-4.43075
-4.22329
-4.0119
-3.79671
-3.5779
-3.35565
-3.13014
-2.90153
-2.67001
-2.43577
-2.19899
-1.95988
-1.71859
-1.47531
-1.23018
-0.98338
-0.735114
-0.485558
-0.234867
0.0168126
0.269335
0.522556
0.776328
1.03049
1.2849
1.53938
1.79379
2.04794
2.30168
2.55484
2.80725
3.05872
3.30904
3.55794
3.80523
4.05071
4.2942
4.5355
4.77442
5.01078
5.24441
5.47515
5.70283
5.92731
6.14842
6.36598
6.57987
6.79001
6.99627
7.19857
7.3968
7.5909
7.78075
7.96621
8.14714
8.32309
8.49463
8.65747
8.82673
8.93624
-7.53994
-7.54418
-7.55093
-7.55827
-7.56578
-7.57328
-7.58071
-7.58796
-7.59494
-7.60153
-7.60758
-7.61297
-7.61759
-7.62133
-7.62411
-7.62588
-7.6266
-7.62625
-7.6248
-7.62226
-7.61865
-7.61406
-7.60865
-7.60262
-7.59615
-7.58932
-7.58228
-7.57514
-7.568
-7.56096
-7.55431
-7.54842
-7.5437
-7.54058
-7.53968
-7.54145
-7.54623
-7.55418
-7.56537
-7.5797
-7.59703
-7.61717
-7.63992
-7.66509
-7.69253
-7.72206
-7.75356
-7.78687
-7.82187
-7.85844
-7.89644
-7.93577
-7.9763
-8.01793
-8.06053
-8.10399
-8.14815
-8.19289
-8.23803
-8.28341
-8.32882
-8.37406
-8.41886
-8.463
-8.5062
-8.54818
-8.58865
-8.6273
-8.66383
-8.69792
-8.72925
-8.7575
-8.78239
-8.80365
-8.82103
-8.8343
-8.84325
-8.84774
-8.84764
-8.84285
-8.83328
-8.81886
-8.79953
-8.77524
-8.74595
-8.71163
-8.67229
-8.62798
-8.57877
-8.52465
-8.46554
-8.40153
-8.33268
-8.25899
-8.18046
-8.09709
-8.00887
-7.91584
-7.81796
-7.71531
-7.60783
-7.49557
-7.37846
-7.25654
-7.12972
-6.99802
-6.86138
-6.71983
-6.57331
-6.42185
-6.26543
-6.10408
-5.9378
-5.76664
-5.59061
-5.40979
-5.22425
-5.03409
-4.83942
-4.64036
-4.43706
-4.22964
-4.01828
-3.80314
-3.58438
-3.36218
-3.13673
-2.90818
-2.67674
-2.44258
-2.20593
-1.96695
-1.72582
-1.4827
-1.23777
-0.991191
-0.743169
-0.493874
-0.243448
0.00796354
0.26022
0.513178
0.766689
1.02061
1.27477
1.52903
1.78323
2.0372
2.29078
2.54382
2.79613
3.04758
3.29787
3.54673
3.79397
4.03942
4.28291
4.52422
4.76318
4.99959
5.23328
5.46409
5.69185
5.91643
6.13763
6.35525
6.56918
6.77934
6.98561
7.1879
7.38612
7.58016
7.76993
7.95524
8.1359
8.31143
8.48239
8.64426
8.81303
8.91869
-7.5239
-7.5283
-7.53516
-7.5431
-7.55122
-7.55917
-7.56694
-7.57452
-7.58185
-7.58885
-7.59534
-7.60117
-7.6062
-7.61033
-7.61351
-7.61569
-7.61682
-7.6169
-7.61594
-7.61394
-7.61098
-7.60713
-7.6025
-7.59719
-7.59133
-7.58501
-7.57831
-7.57134
-7.56432
-7.55748
-7.55115
-7.54562
-7.54135
-7.53879
-7.53847
-7.54074
-7.54594
-7.55418
-7.56553
-7.57989
-7.59718
-7.61722
-7.63986
-7.66495
-7.69236
-7.72194
-7.75357
-7.78711
-7.82243
-7.85941
-7.89792
-7.93786
-7.97909
-8.02152
-8.06498
-8.10936
-8.15447
-8.20019
-8.24632
-8.29271
-8.33911
-8.38534
-8.43112
-8.47622
-8.52033
-8.56319
-8.60446
-8.64384
-8.68101
-8.71563
-8.74736
-8.77587
-8.80086
-8.8221
-8.83931
-8.85225
-8.86073
-8.86464
-8.86389
-8.8584
-8.84811
-8.83294
-8.81283
-8.78774
-8.75763
-8.72246
-8.68223
-8.63703
-8.58701
-8.53208
-8.47225
-8.40754
-8.33806
-8.2638
-8.18477
-8.10095
-8.01236
-7.919
-7.82087
-7.718
-7.61038
-7.498
-7.38085
-7.2589
-7.1321
-7.00043
-6.86386
-6.72237
-6.57595
-6.42459
-6.26829
-6.10704
-5.94088
-5.7698
-5.59385
-5.41309
-5.2276
-5.03748
-4.84285
-4.64384
-4.44057
-4.2332
-4.02188
-3.80678
-3.58806
-3.36592
-3.14053
-2.91205
-2.68067
-2.44661
-2.21008
-1.97125
-1.73028
-1.48735
-1.24262
-0.996288
-0.748535
-0.499517
-0.24937
0.00175879
0.253732
0.506407
0.759643
1.01329
1.2672
1.52122
1.77519
2.02897
2.28237
2.53526
2.78748
3.03891
3.2892
3.53802
3.78519
4.0306
4.27406
4.51538
4.75436
4.99081
5.22455
5.45542
5.68327
5.90796
6.12925
6.34692
6.56087
6.77103
6.97731
7.17959
7.37777
7.57175
7.76143
7.94658
8.12697
8.30206
8.47246
8.63342
8.80165
8.90414
-7.4999
-7.50413
-7.51177
-7.52096
-7.53003
-7.53854
-7.54672
-7.55474
-7.56263
-7.57028
-7.57744
-7.58388
-7.58944
-7.59409
-7.59779
-7.6005
-7.60222
-7.60292
-7.60262
-7.60134
-7.5991
-7.59597
-7.59202
-7.5873
-7.58189
-7.57587
-7.56937
-7.56257
-7.55571
-7.54901
-7.5428
-7.53746
-7.53349
-7.53129
-7.53134
-7.53392
-7.53934
-7.54766
-7.55898
-7.57319
-7.59026
-7.61005
-7.63248
-7.65741
-7.68475
-7.71437
-7.74618
-7.78005
-7.81584
-7.85342
-7.89265
-7.93344
-7.97563
-8.01911
-8.06372
-8.10932
-8.15573
-8.20279
-8.2503
-8.29807
-8.34585
-8.39343
-8.44054
-8.48693
-8.53227
-8.57626
-8.61859
-8.65891
-8.69684
-8.73203
-8.76408
-8.7927
-8.81762
-8.83863
-8.85546
-8.86785
-8.87561
-8.8787
-8.87714
-8.87087
-8.8598
-8.84386
-8.82297
-8.79707
-8.76611
-8.73001
-8.6888
-8.64263
-8.59171
-8.53603
-8.47545
-8.41005
-8.33993
-8.2651
-8.18558
-8.10132
-8.01238
-7.91869
-7.82032
-7.71723
-7.60948
-7.49699
-7.37981
-7.25784
-7.13109
-6.99946
-6.86297
-6.72156
-6.57526
-6.42402
-6.26786
-6.10676
-5.94073
-5.76976
-5.59391
-5.41322
-5.2278
-5.03775
-4.8432
-4.64426
-4.44107
-4.23378
-4.02253
-3.80751
-3.58887
-3.36682
-3.14152
-2.91315
-2.68189
-2.44797
-2.2116
-1.97296
-1.7322
-1.48949
-1.24502
-0.998969
-0.751528
-0.502823
-0.253
-0.00219415
0.249453
0.501805
0.754723
1.00806
1.26168
1.51542
1.76914
2.02267
2.27587
2.52857
2.78067
3.03207
3.28242
3.53125
3.7784
4.02375
4.26719
4.50851
4.7475
4.98398
5.21777
5.4487
5.67663
5.90146
6.12288
6.34058
6.55454
6.7647
6.97096
7.17322
7.37136
7.56527
7.75487
7.93987
8.11997
8.29462
8.46447
8.62457
8.79222
8.89222
-7.46873
-7.47316
-7.48216
-7.49301
-7.5031
-7.5122
-7.52103
-7.52984
-7.53847
-7.54688
-7.55495
-7.56226
-7.56849
-7.57367
-7.57791
-7.58126
-7.58368
-7.58513
-7.58559
-7.58508
-7.5836
-7.58117
-7.57781
-7.57358
-7.56853
-7.56278
-7.55648
-7.54978
-7.54294
-7.53625
-7.53011
-7.5249
-7.52109
-7.51906
-7.51923
-7.52186
-7.52719
-7.53531
-7.54631
-7.56015
-7.57683
-7.59626
-7.6184
-7.64312
-7.67036
-7.70003
-7.73203
-7.76625
-7.80255
-7.84083
-7.88093
-7.92275
-7.96611
-8.0109
-8.05691
-8.10401
-8.15199
-8.20069
-8.24987
-8.29931
-8.34875
-8.39792
-8.44655
-8.49434
-8.54098
-8.58614
-8.62945
-8.67055
-8.70906
-8.74457
-8.77667
-8.80503
-8.82952
-8.84999
-8.86617
-8.87764
-8.88425
-8.88627
-8.88385
-8.87687
-8.8652
-8.8487
-8.82722
-8.80066
-8.76896
-8.73205
-8.68989
-8.6427
-8.59099
-8.53454
-8.47326
-8.40716
-8.33637
-8.26095
-8.1809
-8.09623
-8.0069
-7.91291
-7.81423
-7.71092
-7.60297
-7.4904
-7.37315
-7.25119
-7.12446
-6.9929
-6.85647
-6.71517
-6.56898
-6.41789
-6.2619
-6.10097
-5.9351
-5.76427
-5.58855
-5.40799
-5.22271
-5.03279
-4.83836
-4.63953
-4.43644
-4.22923
-4.01806
-3.8031
-3.58455
-3.36259
-3.13743
-2.90924
-2.67823
-2.44458
-2.20848
-1.97012
-1.72966
-1.48728
-1.24317
-0.997542
-0.750521
-0.502247
-0.252865
-0.00251185
0.248677
0.500568
0.753024
1.00591
1.25908
1.51238
1.76568
2.01882
2.27163
2.52397
2.77571
3.02687
3.27711
3.52591
3.77303
4.01833
4.26172
4.50301
4.742
4.97849
5.21231
5.44329
5.67131
5.89637
6.11801
6.33578
6.54976
6.75993
6.9662
7.16844
7.36656
7.56043
7.74999
7.93486
8.11468
8.28891
8.45822
8.61751
8.78452
8.88268
-7.43293
-7.4382
-7.4491
-7.46197
-7.47324
-7.48284
-7.49202
-7.50156
-7.5113
-7.52082
-7.52986
-7.53813
-7.54513
-7.55082
-7.55554
-7.55953
-7.56266
-7.56489
-7.56616
-7.56646
-7.56573
-7.56398
-7.56122
-7.55748
-7.55281
-7.5473
-7.54111
-7.53443
-7.52758
-7.52086
-7.51469
-7.50943
-7.50554
-7.50337
-7.50329
-7.50553
-7.51035
-7.51786
-7.52817
-7.54132
-7.55733
-7.57617
-7.59781
-7.62219
-7.64927
-7.67895
-7.71114
-7.74574
-7.78263
-7.82171
-7.86281
-7.90581
-7.95054
-7.99682
-8.04447
-8.09328
-8.14304
-8.1935
-8.2444
-8.29548
-8.34647
-8.39707
-8.44699
-8.49592
-8.54354
-8.58949
-8.63342
-8.67492
-8.71364
-8.74906
-8.78066
-8.80815
-8.83169
-8.85129
-8.86653
-8.87664
-8.88153
-8.8821
-8.87883
-8.87142
-8.85952
-8.84283
-8.82113
-8.79423
-8.7622
-8.72518
-8.68307
-8.63617
-8.58424
-8.52741
-8.46548
-8.3987
-8.32722
-8.25115
-8.17047
-8.08524
-7.9954
-7.90096
-7.80187
-7.69821
-7.58997
-7.47718
-7.35977
-7.23772
-7.11092
-6.97934
-6.84291
-6.70165
-6.55553
-6.40455
-6.24867
-6.08788
-5.92213
-5.75144
-5.57583
-5.39541
-5.21023
-5.02043
-4.82609
-4.62735
-4.42433
-4.21719
-4.00606
-3.79115
-3.57266
-3.35078
-3.12574
-2.89772
-2.66696
-2.43359
-2.19777
-1.9597
-1.71955
-1.47753
-1.23384
-0.988655
-0.74209
-0.494301
-0.245427
0.00439684
0.255041
0.506374
0.758264
1.01058
1.26318
1.51592
1.76865
2.02122
2.27346
2.5252
2.77626
3.02648
3.27569
3.52374
3.7704
4.01544
4.25862
4.49972
4.73854
4.97489
5.20857
5.43941
5.66734
5.89248
6.11426
6.33207
6.54606
6.75624
6.96252
7.16477
7.36288
7.55675
7.74639
7.93122
8.11078
8.2846
8.4534
8.61193
8.77825
8.87522
-7.39479
-7.40122
-7.4145
-7.42941
-7.44117
-7.45111
-7.46129
-7.47196
-7.48267
-7.4931
-7.50302
-7.51212
-7.51984
-7.52613
-7.53147
-7.5362
-7.54015
-7.54329
-7.54548
-7.54672
-7.5469
-7.546
-7.54396
-7.54081
-7.53656
-7.53133
-7.52526
-7.51857
-7.51157
-7.50456
-7.498
-7.49221
-7.48767
-7.48466
-7.48364
-7.48478
-7.48844
-7.49469
-7.50377
-7.51569
-7.5306
-7.54846
-7.56936
-7.59323
-7.62007
-7.64978
-7.68227
-7.71741
-7.75508
-7.79515
-7.83744
-7.8818
-7.92798
-7.97584
-8.02509
-8.07556
-8.12691
-8.17894
-8.23128
-8.28372
-8.33588
-8.38753
-8.43832
-8.48798
-8.53612
-8.58248
-8.62661
-8.66821
-8.70677
-8.7417
-8.77192
-8.79726
-8.81874
-8.83711
-8.85193
-8.86238
-8.86799
-8.86889
-8.86549
-8.85775
-8.84547
-8.82841
-8.80621
-8.77881
-8.74631
-8.709
-8.66713
-8.6203
-8.56837
-8.51109
-8.44866
-8.38133
-8.30931
-8.23266
-8.15145
-8.06569
-7.97541
-7.88057
-7.78117
-7.67725
-7.56884
-7.45592
-7.33843
-7.21634
-7.08957
-6.95805
-6.82174
-6.68063
-6.53471
-6.38393
-6.22827
-6.0677
-5.90219
-5.73172