/*--------------------------------*- C++ -*----------------------------------*\
  =========                 |
  \\      /  F ield         | OpenFOAM: The Open Source CFD Toolbox
   \\    /   O peration     | Website:  https://openfoam.org
    \\  /    A nd           | Version:  13
     \\/     M anipulation  |
\*---------------------------------------------------------------------------*/
FoamFile
{
    format      ascii;
    class       surfaceScalarField;
    location    "1500";
    object      phi;
}
// * * * * * * * * * * * * * * * * * * * * * * * * * * * * * * * * * * * * * //

dimensions      [0 3 -1 0 0 0 0];

internalField   nonuniform List<scalar> 
24170
(
3.03885e-06
1.49534e-07
2.87844e-06
1.60408e-07
2.73099e-06
1.4746e-07
2.59547e-06
1.35593e-07
2.47684e-06
1.18592e-07
2.37652e-06
1.00279e-07
2.29194e-06
8.45627e-08
2.22135e-06
7.04946e-08
2.1649e-06
5.64541e-08
2.12108e-06
4.38022e-08
2.08625e-06
3.48482e-08
2.05841e-06
2.78157e-08
2.03628e-06
2.21565e-08
2.01768e-06
1.8582e-08
2.00297e-06
1.4704e-08
1.99245e-06
1.05273e-08
1.98842e-06
4.07377e-09
-3.81077e-09
1.99228e-06
3.49566e-06
7.11215e-08
3.54586e-06
1.10086e-07
3.57722e-06
1.15986e-07
3.58881e-06
1.24098e-07
3.582e-06
1.25454e-07
3.56498e-06
1.17435e-07
3.54255e-06
1.07118e-07
3.51414e-06
9.89806e-08
3.48169e-06
8.8993e-08
3.44563e-06
7.9856e-08
3.4065e-06
7.39669e-08
3.36861e-06
6.56575e-08
3.33435e-06
5.63562e-08
3.30284e-06
5.00031e-08
3.27267e-06
4.47937e-08
3.2442e-06
3.89461e-08
3.21777e-06
3.04825e-08
2.22693e-08
3.19165e-06
3.6787e-06
5.49037e-08
3.69368e-06
9.51751e-08
3.71105e-06
9.8729e-08
3.73049e-06
1.04721e-07
3.74921e-06
1.06717e-07
3.76527e-06
1.01321e-07
3.77843e-06
9.39414e-08
3.78907e-06
8.82723e-08
3.79648e-06
8.15715e-08
3.80099e-06
7.53108e-08
3.80395e-06
7.09751e-08
3.80473e-06
6.48491e-08
3.80322e-06
5.78739e-08
3.80059e-06
5.26489e-08
3.79745e-06
4.79446e-08
3.79396e-06
4.24432e-08
3.78893e-06
3.55389e-08
2.85698e-08
3.78265e-06
3.93697e-06
4.32989e-08
3.94527e-06
8.67833e-08
3.95156e-06
9.24522e-08
3.9592e-06
9.72004e-08
3.96734e-06
9.8673e-08
3.9746e-06
9.42085e-08
3.98114e-06
8.75412e-08
3.98773e-06
8.17811e-08
3.99389e-06
7.54993e-08
3.99964e-06
6.95811e-08
4.00572e-06
6.48793e-08
4.01136e-06
5.91832e-08
4.01611e-06
5.31124e-08
4.02055e-06
4.8182e-08
4.02488e-06
4.35927e-08
4.02883e-06
3.84733e-08
4.03171e-06
3.26595e-08
2.71629e-08
4.0331e-06
4.21628e-06
3.4124e-08
4.22546e-06
7.76488e-08
4.2316e-06
8.64416e-08
4.23831e-06
9.05159e-08
4.24502e-06
9.19623e-08
4.25054e-06
8.86356e-08
4.25506e-06
8.29927e-08
4.25927e-06
7.75281e-08
4.26302e-06
7.17193e-08
4.26646e-06
6.61205e-08
4.27012e-06
6.12005e-08
4.27353e-06
5.57599e-08
4.27644e-06
5.02021e-08
4.27929e-06
4.53507e-08
4.28217e-06
4.07228e-08
4.28485e-06
3.58109e-08
4.28691e-06
3.06216e-08
2.57803e-08
4.2883e-06
4.51596e-06
2.72504e-08
4.52524e-06
6.83907e-08
4.53178e-06
7.99721e-08
4.53845e-06
8.3933e-08
4.54513e-06
8.53435e-08
4.55082e-06
8.30346e-08
4.5555e-06
7.8379e-08
4.55973e-06
7.33644e-08
4.56347e-06
6.80237e-08
4.56685e-06
6.27642e-08
4.5702e-06
5.78538e-08
4.57326e-06
5.26951e-08
4.57593e-06
4.75401e-08
4.57846e-06
4.28203e-08
4.58092e-06
3.82602e-08
4.58313e-06
3.36023e-08
4.58486e-06
2.89006e-08
2.45227e-08
4.58611e-06
4.83769e-06
2.22768e-08
4.84664e-06
5.94556e-08
4.85363e-06
7.30588e-08
4.86027e-06
7.73049e-08
4.86681e-06
7.87747e-08
4.87258e-06
7.72159e-08
4.87748e-06
7.34325e-08
4.88187e-06
6.89413e-08
4.8858e-06
6.40704e-08
4.88937e-06
5.91712e-08
4.89279e-06
5.44174e-08
4.89592e-06
4.95639e-08
4.8987e-06
4.47617e-08
4.90129e-06
4.02314e-08
4.90372e-06
3.5835e-08
4.90587e-06
3.14624e-08
4.90761e-06
2.71739e-08
2.31736e-08
4.90897e-06
5.18311e-06
1.87548e-08
5.19146e-06
5.12067e-08
5.19888e-06
6.57355e-08
5.20563e-06
7.06173e-08
5.21205e-06
7.24071e-08
5.21784e-06
7.14518e-08
5.22289e-06
6.8412e-08
5.22742e-06
6.44281e-08
5.23153e-06
5.99888e-08
5.23528e-06
5.54247e-08
5.2388e-06
5.08954e-08
5.24204e-06
4.63316e-08
5.24496e-06
4.18415e-08
5.24766e-06
3.75357e-08
5.25013e-06
3.33631e-08
5.25231e-06
2.92879e-08
5.25413e-06
2.53571e-08
2.1694e-08
5.2556e-06
5.55417e-06
1.59262e-08
5.5617e-06
4.36841e-08
5.56915e-06
5.831e-08
5.57592e-06
6.38416e-08
5.5823e-06
6.60036e-08
5.58819e-06
6.55288e-08
5.59345e-06
6.31174e-08
5.59819e-06
5.96492e-08
5.60251e-06
5.56513e-08
5.60647e-06
5.14552e-08
5.61013e-06
4.72129e-08
5.6135e-06
4.29554e-08
5.61657e-06
3.87678e-08
5.61938e-06
3.47192e-08
5.62194e-06
3.08058e-08
5.6242e-06
2.70272e-08
5.62613e-06
2.34245e-08
2.00758e-08
5.62775e-06
5.95226e-06
1.34444e-08
5.95884e-06
3.72137e-08
5.96603e-06
5.12214e-08
5.97278e-06
5.71529e-08
5.97925e-06
5.95816e-08
5.9853e-06
5.95106e-08
5.99081e-06
5.76303e-08
5.99583e-06
5.46509e-08
6.00041e-06
5.10852e-08
6.00461e-06
4.7263e-08
6.00848e-06
4.33462e-08
6.01202e-06
3.94108e-08
6.01525e-06
3.55303e-08
6.01821e-06
3.17655e-08
6.02088e-06
2.81323e-08
6.02325e-06
2.46534e-08
6.02531e-06
2.1361e-08
1.83009e-08
6.02708e-06
6.37896e-06
1.13167e-08
6.38472e-06
3.1443e-08
6.39155e-06
4.44054e-08
6.39826e-06
5.04516e-08
6.40479e-06
5.30571e-08
6.41098e-06
5.33024e-08
6.41673e-06
5.18771e-08
6.42201e-06
4.93644e-08
6.42685e-06
4.62363e-08
6.4313e-06
4.28038e-08
6.4354e-06
3.92401e-08
6.43916e-06
3.56424e-08
6.44259e-06
3.20951e-08
6.44571e-06
2.86337e-08
6.44853e-06
2.53072e-08
6.45105e-06
2.21299e-08
6.45326e-06
1.91397e-08
1.63709e-08
6.45519e-06
5.74245e-06
9.69434e-09
5.74678e-06
2.71712e-08
5.75221e-06
3.90345e-08
5.75778e-06
4.49132e-08
5.76329e-06
4.75681e-08
5.7686e-06
4.80062e-08
5.77359e-06
4.6888e-08
5.77823e-06
4.47259e-08
5.78252e-06
4.19492e-08
5.78647e-06
3.88445e-08
5.79011e-06
3.55889e-08
5.79346e-06
3.2298e-08
5.79651e-06
2.90207e-08
5.7993e-06
2.58477e-08
5.80182e-06
2.27771e-08
5.80407e-06
1.98717e-08
5.80608e-06
1.71344e-08
1.46064e-08
5.80784e-06
6.99982e-06
8.04882e-09
7.00428e-06
2.27187e-08
7.01009e-06
3.32429e-08
7.01627e-06
3.87534e-08
7.02252e-06
4.13371e-08
7.02861e-06
4.19254e-08
7.03442e-06
4.10815e-08
7.03988e-06
3.92735e-08
7.04496e-06
3.68618e-08
7.04969e-06
3.41228e-08
7.05406e-06
3.12228e-08
7.05808e-06
2.82622e-08
7.06178e-06
2.53318e-08
7.06514e-06
2.24645e-08
7.0682e-06
1.97216e-08
7.07094e-06
1.71129e-08
7.0734e-06
1.46763e-08
1.24189e-08
7.07558e-06
8.53252e-06
6.36816e-09
8.53706e-06
1.81898e-08
8.54318e-06
2.71291e-08
8.54992e-06
3.19969e-08
8.55687e-06
3.4394e-08
8.56376e-06
3.50201e-08
8.57042e-06
3.44218e-08
8.57674e-06
3.29326e-08
8.5827e-06
3.09073e-08
8.58826e-06
2.85474e-08
8.59345e-06
2.60459e-08
8.59825e-06
2.34654e-08
8.60266e-06
2.09117e-08
8.6067e-06
1.84148e-08
8.61038e-06
1.60291e-08
8.61372e-06
1.37716e-08
8.61672e-06
1.16643e-08
9.72669e-09
8.61942e-06
1.04009e-05
4.7046e-09
1.04054e-05
1.36372e-08
1.04118e-05
2.07424e-08
1.04191e-05
2.47348e-08
1.04267e-05
2.6733e-08
1.04344e-05
2.73189e-08
1.04419e-05
2.68501e-08
1.04492e-05
2.56753e-08
1.0456e-05
2.39984e-08
1.04625e-05
2.20707e-08
1.04686e-05
1.99627e-08
1.04742e-05
1.7829e-08
1.04794e-05
1.56771e-08
1.04843e-05
1.36082e-08
1.04886e-05
1.16148e-08
1.04927e-05
9.75467e-09
1.04963e-05
8.01185e-09
6.42697e-09
1.04996e-05
1.26784e-05
3.05034e-09
1.2683e-05
9.07107e-09
1.26896e-05
1.41368e-08
1.26973e-05
1.69665e-08
1.27056e-05
1.84014e-08
1.27141e-05
1.87642e-08
1.27226e-05
1.83651e-08
1.27308e-05
1.74083e-08
1.27387e-05
1.60999e-08
1.27462e-05
1.45571e-08
1.27533e-05
1.29169e-08
1.27598e-05
1.12174e-08
1.2766e-05
9.54822e-09
1.27716e-05
7.92075e-09
1.27769e-05
6.38813e-09
1.27816e-05
4.94838e-09
1.2786e-05
3.6271e-09
2.42442e-09
1.279e-05
1.54548e-05
1.39736e-09
1.54595e-05
4.42925e-09
1.54663e-05
7.24943e-09
1.54746e-05
8.67587e-09
1.54837e-05
9.31172e-09
1.54931e-05
9.30947e-09
1.55026e-05
8.84517e-09
1.55119e-05
8.05166e-09
1.5521e-05
7.04604e-09
1.55296e-05
5.91247e-09
1.55378e-05
4.7205e-09
1.55455e-05
3.51763e-09
1.55527e-05
2.34441e-09
1.55593e-05
1.22541e-09
1.55655e-05
1.81442e-10
1.55712e-05
-7.76991e-10
1.55765e-05
-1.64352e-09
-2.40983e-09
1.55813e-05
1.88394e-05
-3.2883e-10
1.88443e-05
-4.77293e-10
1.88517e-05
-1.57064e-10
1.88608e-05
-3.97268e-10
1.88709e-05
-7.8427e-10
1.88815e-05
-1.31742e-09
1.88923e-05
-1.95972e-09
1.8903e-05
-2.66327e-09
1.89134e-05
-3.39816e-09
1.89235e-05
-4.13308e-09
1.8933e-05
-4.85011e-09
1.89421e-05
-5.52836e-09
1.89505e-05
-6.15655e-09
1.89585e-05
-6.72343e-09
1.89658e-05
-7.22342e-09
1.89727e-05
-7.65297e-09
1.8979e-05
-8.01035e-09
-8.29628e-09
1.89849e-05
2.29653e-05
-2.31236e-09
2.2971e-05
-6.12292e-09
2.29796e-05
-8.75708e-09
2.29903e-05
-1.09902e-08
2.30021e-05
-1.25967e-08
2.30146e-05
-1.38171e-08
2.30274e-05
-1.46865e-08
2.304e-05
-1.5346e-08
2.30524e-05
-1.57762e-08
2.30644e-05
-1.60902e-08
2.30757e-05
-1.62636e-08
2.30866e-05
-1.63653e-08
2.30967e-05
-1.63713e-08
2.31063e-05
-1.63236e-08
2.31153e-05
-1.62052e-08
2.31237e-05
-1.60414e-08
2.31314e-05
-1.58193e-08
-1.5564e-08
2.31387e-05
1.68124e-05
-3.96713e-09
1.6817e-05
-1.06852e-08
1.68238e-05
-1.5601e-08
1.68321e-05
-1.92008e-08
1.68412e-05
-2.16712e-08
1.68508e-05
-2.32606e-08
1.68603e-05
-2.43144e-08
1.68699e-05
-2.48151e-08
1.6879e-05
-2.50421e-08
1.6888e-05
-2.49595e-08
1.68964e-05
-2.47604e-08
1.69044e-05
-2.43925e-08
1.69119e-05
-2.39736e-08
1.69191e-05
-2.34555e-08
1.69257e-05
-2.29152e-08
1.6932e-05
-2.23157e-08
1.69378e-05
-2.17008e-08
-2.10593e-08
1.69433e-05
1.46364e-05
-5.73984e-09
1.46412e-05
-1.548e-08
1.46481e-05
-2.24553e-08
1.46561e-05
-2.72009e-08
1.46647e-05
-3.02234e-08
1.46735e-05
-3.21347e-08
1.46825e-05
-3.31291e-08
1.46911e-05
-3.35095e-08
1.46995e-05
-3.33776e-08
1.47074e-05
-3.29686e-08
1.4715e-05
-3.23325e-08
1.47222e-05
-3.15747e-08
1.47289e-05
-3.0716e-08
1.47352e-05
-2.98097e-08
1.47412e-05
-2.88648e-08
1.47467e-05
-2.79069e-08
1.47519e-05
-2.69276e-08
-2.59735e-08
1.47568e-05
1.27422e-05
-7.79063e-09
1.27475e-05
-2.08141e-08
1.27547e-05
-2.96426e-08
1.27627e-05
-3.51492e-08
1.2771e-05
-3.85446e-08
1.27795e-05
-4.05262e-08
1.27878e-05
-4.14279e-08
1.27958e-05
-4.14859e-08
1.28034e-05
-4.09989e-08
1.28106e-05
-4.01715e-08
1.28174e-05
-3.91199e-08
1.28238e-05
-3.79544e-08
1.28298e-05
-3.66912e-08
1.28353e-05
-3.5419e-08
1.28406e-05
-3.4113e-08
1.28455e-05
-3.28424e-08
1.28501e-05
-3.15494e-08
-3.03324e-08
1.28544e-05
1.10935e-05
-1.03087e-08
1.10996e-05
-2.69443e-08
1.11072e-05
-3.72149e-08
1.11151e-05
-4.31227e-08
1.11233e-05
-4.66633e-08
1.11313e-05
-4.8585e-08
1.11391e-05
-4.91688e-08
1.11465e-05
-4.88172e-08
1.11534e-05
-4.78894e-08
1.11598e-05
-4.6618e-08
1.11659e-05
-4.51579e-08
1.11715e-05
-4.35603e-08
1.11767e-05
-4.19233e-08
1.11816e-05
-4.02754e-08
1.11862e-05
-3.8684e-08
1.11905e-05
-3.71074e-08
1.11944e-05
-3.55818e-08
-3.41228e-08
1.11982e-05
9.65845e-06
-1.35423e-08
9.66558e-06
-3.40727e-08
9.67354e-06
-4.51725e-08
9.6815e-06
-5.10819e-08
9.68943e-06
-5.46062e-08
9.69713e-06
-5.62666e-08
9.70439e-06
-5.64229e-08
9.71114e-06
-5.55569e-08
9.71735e-06
-5.41072e-08
9.72309e-06
-5.23548e-08
9.7284e-06
-5.04532e-08
9.73332e-06
-4.84583e-08
9.73787e-06
-4.64465e-08
9.74209e-06
-4.44871e-08
9.74605e-06
-4.26097e-08
9.74974e-06
-4.08053e-08
9.75322e-06
-3.90408e-08
-3.74367e-08
9.75654e-06
8.40966e-06
-1.78523e-08
8.41789e-06
-4.2292e-08
8.42614e-06
-5.34194e-08
8.43406e-06
-5.8986e-08
8.44185e-06
-6.23694e-08
8.4493e-06
-6.37147e-08
8.45619e-06
-6.33179e-08
8.46245e-06
-6.18297e-08
8.46813e-06
-5.97919e-08
8.4733e-06
-5.7541e-08
8.47802e-06
-5.51706e-08
8.48233e-06
-5.27683e-08
8.4863e-06
-5.03805e-08
8.48995e-06
-4.81231e-08
8.49336e-06
-4.60082e-08
8.49655e-06
-4.39791e-08
8.49954e-06
-4.2026e-08
-4.02521e-08
8.50236e-06
7.32308e-06
-2.36477e-08
7.33253e-06
-5.17641e-08
7.34115e-06
-6.20122e-08
7.34926e-06
-6.70895e-08
7.35713e-06
-7.02384e-08
7.3645e-06
-7.10781e-08
7.37115e-06
-6.99821e-08
7.37714e-06
-6.78456e-08
7.38259e-06
-6.52735e-08
7.38753e-06
-6.24849e-08
7.39197e-06
-5.96289e-08
7.39597e-06
-5.67507e-08
7.39963e-06
-5.40553e-08
7.40298e-06
-5.14758e-08
7.40605e-06
-4.90935e-08
7.40892e-06
-4.68791e-08
7.41166e-06
-4.47152e-08
-4.28772e-08
7.4143e-06
6.37823e-06
-3.18207e-08
6.38932e-06
-6.28575e-08
6.399e-06
-7.16982e-08
6.40828e-06
-7.63268e-08
6.41712e-06
-7.90863e-08
6.42522e-06
-7.91701e-08
6.43249e-06
-7.72733e-08
6.43905e-06
-7.44339e-08
6.44496e-06
-7.12026e-08
6.45031e-06
-6.78757e-08
6.45527e-06
-6.45028e-08
6.45973e-06
-6.12866e-08
6.46387e-06
-5.81973e-08
6.46774e-06
-5.53677e-08
6.4714e-06
-5.27816e-08
6.47488e-06
-5.03669e-08
6.47823e-06
-4.81167e-08
-4.61316e-08
6.48157e-06
5.56049e-06
-4.68457e-08
5.57642e-06
-7.88031e-08
5.5908e-06
-8.60773e-08
5.60484e-06
-9.0335e-08
5.618e-06
-9.22569e-08
5.62977e-06
-9.09479e-08
5.64014e-06
-8.76599e-08
5.64919e-06
-8.35139e-08
5.65712e-06
-7.91739e-08
5.66415e-06
-7.48566e-08
5.67028e-06
-7.06244e-08
5.67554e-06
-6.65903e-08
5.68007e-06
-6.27793e-08
5.68392e-06
-5.92453e-08
5.68715e-06
-5.60498e-08
5.68989e-06
-5.31733e-08
5.69248e-06
-5.0651e-08
-4.91124e-08
5.69544e-06
4.87724e-06
-9.6481e-08
4.91314e-06
-1.1472e-07
4.94028e-06
-1.13213e-07
4.95925e-06
-1.09276e-07
4.96939e-06
-1.02418e-07
4.97199e-06
-9.35531e-08
4.9687e-06
-8.43978e-08
4.96094e-06
-7.5783e-08
4.94973e-06
-6.79881e-08
4.93625e-06
-6.13423e-08
4.9213e-06
-5.56618e-08
4.90509e-06
-5.04398e-08
4.88787e-06
-4.56142e-08
4.87006e-06
-4.14755e-08
4.85217e-06
-3.82185e-08
4.83472e-06
-3.57603e-08
4.81776e-06
-3.37097e-08
-3.29508e-08
4.80161e-06
4.10619e-06
3.99148e-06
3.87827e-06
3.76899e-06
3.66657e-06
3.57301e-06
3.48861e-06
3.41282e-06
3.34484e-06
3.2835e-06
3.22783e-06
3.17738e-06
3.13176e-06
3.09027e-06
3.05204e-06
3.01628e-06
2.98257e-06
2.9496e-06
-7.62307e-09
7.70171e-09
-2.05913e-08
1.30926e-08
-3.52121e-08
1.47369e-08
-4.82708e-08
1.31443e-08
-5.49859e-08
6.81044e-09
-4.95376e-08
-5.35954e-09
-2.9274e-08
-2.01908e-08
4.10698e-09
-3.32542e-08
4.67364e-08
-4.25828e-08
9.42811e-08
-4.74285e-08
1.42121e-07
-4.78296e-08
1.87269e-07
-4.5053e-08
2.27415e-07
-4.01555e-08
2.61405e-07
-3.3915e-08
2.88277e-07
-2.68948e-08
3.07753e-07
-1.94141e-08
3.1936e-07
-1.16408e-08
3.22969e-07
-3.55831e-09
3.18161e-07
4.76779e-09
3.05137e-07
1.30559e-08
2.84197e-07
2.08868e-08
2.56307e-07
2.78887e-08
2.22566e-07
3.36654e-08
1.84724e-07
3.77844e-08
1.44821e-07
3.97837e-08
1.05398e-07
3.92936e-08
6.90442e-08
3.61612e-08
3.81744e-08
3.06557e-08
1.42651e-08
2.36346e-08
-2.41757e-09
1.63943e-08
-1.27752e-08
1.00503e-08
-1.76073e-08
4.54324e-09
-1.70484e-08
-8.56268e-10
-1.031e-08
-7.03188e-09
3.95744e-09
-1.45399e-08
2.68861e-08
-2.31989e-08
5.76387e-08
-3.0953e-08
9.15364e-08
-3.4091e-08
1.22706e-07
-3.13067e-08
1.46402e-07
-2.3784e-08
1.60246e-07
-1.39364e-08
1.65295e-07
-5.02978e-09
1.64477e-07
7.5663e-10
1.61124e-07
3.40638e-09
1.57556e-07
3.44064e-09
1.54791e-07
2.8007e-09
1.46382e-07
8.09347e-09
1.24856e-07
2.17157e-08
8.14181e-08
4.30443e-08
1.4202e-08
6.76356e-08
-7.57698e-08
8.97671e-08
-1.83496e-07
1.08063e-07
-3.07769e-07
1.24198e-07
-4.45124e-07
1.37469e-07
-5.88811e-07
1.43643e-07
-7.33735e-07
1.4491e-07
-8.78862e-07
1.45109e-07
-1.02094e-06
1.42032e-07
-1.1559e-06
1.34981e-07
-1.28287e-06
1.26906e-07
-1.40092e-06
1.18081e-07
-1.50968e-06
1.08697e-07
-1.6096e-06
9.99824e-08
-1.70127e-06
9.16128e-08
-1.78539e-06
8.42026e-08
-1.86307e-06
7.76082e-08
-1.93464e-06
7.16571e-08
-2.00111e-06
6.63897e-08
-2.06275e-06
6.17298e-08
-2.12043e-06
5.76084e-08
-2.1743e-06
5.39588e-08
-2.22505e-06
5.06745e-08
-2.27269e-06
4.77295e-08
-2.3178e-06
4.50174e-08
-2.36029e-06
4.25422e-08
-2.4006e-06
4.02095e-08
-2.43864e-06
3.80407e-08
-2.47471e-06
3.59651e-08
-2.5087e-06
3.40084e-08
-2.54088e-06
3.21074e-08
-2.57114e-06
3.029e-08
-2.59969e-06
2.85108e-08
-2.62644e-06
2.67936e-08
-2.65153e-06
2.51031e-08
-2.67494e-06
2.34558e-08
-2.69674e-06
2.18298e-08
-2.71693e-06
2.02278e-08
-2.73555e-06
1.86372e-08
-2.7526e-06
1.70708e-08
-2.76815e-06
1.55016e-08
-2.78218e-06
1.39695e-08
-2.79472e-06
1.24443e-08
-2.80574e-06
1.09342e-08
-2.81526e-06
9.42064e-09
-2.82323e-06
7.89931e-09
-2.82965e-06
6.35229e-09
-2.83445e-06
4.76852e-09
-2.8376e-06
3.13493e-09
-2.83904e-06
1.45126e-09
-2.83879e-06
-2.11252e-10
-2.83708e-06
-1.65872e-09
-2.8341e-06
-2.88937e-09
-2.8299e-06
-4.08282e-09
-2.8245e-06
-5.2491e-09
-2.81795e-06
-6.42434e-09
-2.81021e-06
-7.59138e-09
-2.80134e-06
-8.77626e-09
-2.79129e-06
-9.95429e-09
-2.7801e-06
-1.11462e-08
-2.76773e-06
-1.23276e-08
-2.75421e-06
-1.35179e-08
-2.7395e-06
-1.46957e-08
-2.72364e-06
-1.58798e-08
-2.70659e-06
-1.70516e-08
-2.6884e-06
-1.82286e-08
-2.66903e-06
-1.93933e-08
-2.64851e-06
-2.05597e-08
-2.62684e-06
-2.1711e-08
-2.60405e-06
-2.28577e-08
-2.58012e-06
-2.39866e-08
-2.55506e-06
-2.51049e-08
-2.52889e-06
-2.62039e-08
-2.50162e-06
-2.72949e-08
-2.47327e-06
-2.83682e-08
-2.44388e-06
-2.94368e-08
-2.41344e-06
-3.04854e-08
-2.38198e-06
-3.15248e-08
-2.34951e-06
-3.25412e-08
-2.31605e-06
-3.35439e-08
-2.28162e-06
-3.45217e-08
-2.24625e-06
-3.54776e-08
-2.20995e-06
-3.64075e-08
-2.17275e-06
-3.7312e-08
-2.13468e-06
-3.81856e-08
-2.09577e-06
-3.90146e-08
-2.0561e-06
-3.97863e-08
-2.01572e-06
-4.04809e-08
-1.97468e-06
-4.11198e-08
-1.93284e-06
-4.18629e-08
-1.89016e-06
-4.26567e-08
-1.84675e-06
-4.33476e-08
-1.80264e-06
-4.40211e-08
-1.75786e-06
-4.46792e-08
-1.71243e-06
-4.53231e-08
-1.66637e-06
-4.59489e-08
-1.61969e-06
-4.65586e-08
-1.57242e-06
-4.71507e-08
-1.52458e-06
-4.77235e-08
-1.47618e-06
-4.82826e-08
-1.42726e-06
-4.8818e-08
-1.37782e-06
-4.93371e-08
-1.32791e-06
-4.98287e-08
-1.27753e-06
-5.02978e-08
-1.22674e-06
-5.07317e-08
-1.17555e-06
-5.11337e-08
-1.12401e-06
-5.15064e-08
-1.07214e-06
-5.18422e-08
-1.01998e-06
-5.21529e-08
-9.67548e-07
-5.24352e-08
-9.14879e-07
-5.26952e-08
-8.61977e-07
-5.29343e-08
-8.08874e-07
-5.31572e-08
-7.55569e-07
-5.33644e-08
-7.02088e-07
-5.3558e-08
-6.48431e-07
-5.37355e-08
-5.94627e-07
-5.38958e-08
-5.40681e-07
-5.40358e-08
-4.86622e-07
-5.41579e-08
-4.32454e-07
-5.42609e-08
-3.78208e-07
-5.43448e-08
-3.23891e-07
-5.44051e-08
-2.6955e-07
-5.44306e-08
-2.15237e-07
-5.43898e-08
-1.61067e-07
-5.42445e-08
-1.07216e-07
-5.39098e-08
-5.40981e-08
-5.31705e-08
-2.37271e-09
-5.17594e-08
4.63476e-08
-4.87439e-08
9.16458e-08
-4.53026e-08
-2.12664e-08
1.129e-07
-3.25496e-09
1.10863e-08
-8.97268e-09
1.90139e-08
-1.18933e-08
1.78846e-08
-5.75455e-09
7.18188e-09
1.4621e-08
-1.33922e-08
4.90908e-08
-3.97207e-08
9.40906e-08
-6.51192e-08
1.44639e-07
-8.37259e-08
1.956e-07
-9.35091e-08
2.43473e-07
-9.52345e-08
2.86464e-07
-9.08026e-08
3.23787e-07
-8.23199e-08
3.5512e-07
-7.1483e-08
3.80688e-07
-5.94367e-08
4.00684e-07
-4.68951e-08
4.15561e-07
-3.42567e-08
4.25627e-07
-2.17203e-08
4.31474e-07
-9.38283e-09
4.33454e-07
2.76567e-09
4.31691e-07
1.48258e-08
4.25732e-07
2.68117e-08
4.15058e-07
3.8544e-08
3.99016e-07
4.96556e-08
3.7718e-07
5.95677e-08
3.49362e-07
6.75169e-08
3.1593e-07
7.26326e-08
2.77867e-07
7.40964e-08
2.36975e-07
7.14069e-08
1.95832e-07
6.45892e-08
1.57795e-07
5.42242e-08
1.26451e-07
4.11226e-08
1.04767e-07
2.59332e-08
9.45932e-08
8.98251e-09
9.62902e-08
-9.04171e-09
1.09023e-07
-2.75424e-08
1.29914e-07
-4.4327e-08
1.53074e-07
-5.42832e-08
1.72049e-07
-5.32176e-08
1.82661e-07
-4.20319e-08
1.83753e-07
-2.49441e-08
1.75527e-07
-5.79972e-09
1.59698e-07
1.08115e-08
1.3716e-07
2.31888e-08
1.02453e-07
3.81798e-08
4.58425e-08
5.98452e-08
-4.0159e-08
8.87793e-08
-1.56135e-07
1.23886e-07
-2.94061e-07
1.59639e-07
-4.44298e-07
1.93229e-07
-6.00325e-07
2.23719e-07
-7.59137e-07
2.4858e-07
-9.17547e-07
2.66531e-07
-1.07123e-06
2.77898e-07
-1.21605e-06
2.82309e-07
-1.35116e-06
2.78759e-07
-1.47491e-06
2.68655e-07
-1.58493e-06
2.55136e-07
-1.68199e-06
2.39088e-07
-1.76828e-06
2.21275e-07
-1.84466e-06
2.03271e-07
-1.91252e-06
1.85949e-07
-1.97354e-06
1.69701e-07
-2.02864e-06
1.55099e-07
-2.07912e-06
1.42086e-07
-2.12554e-06
1.30634e-07
-2.1686e-06
1.20654e-07
-2.20884e-06
1.11915e-07
-2.24671e-06
1.04244e-07
-2.28245e-06
9.74827e-08
-2.31633e-06
9.14778e-08
-2.34844e-06
8.60931e-08
-2.37898e-06
8.12028e-08
-2.40795e-06
7.67236e-08
-2.43551e-06
7.25585e-08
-2.46163e-06
6.86613e-08
-2.48642e-06
6.49637e-08
-2.50984e-06
6.14444e-08
-2.53197e-06
5.80563e-08
-2.55277e-06
5.47907e-08
-2.5723e-06
5.16115e-08
-2.59053e-06
4.85188e-08
-2.60751e-06
4.5487e-08
-2.62322e-06
4.25193e-08
-2.6377e-06
3.9597e-08
-2.65094e-06
3.67233e-08
-2.66298e-06
3.38829e-08
-2.6738e-06
3.10759e-08
-2.68344e-06
2.82974e-08
-2.69191e-06
2.55346e-08
-2.69923e-06
2.28136e-08
-2.70544e-06
2.01158e-08
-2.71051e-06
1.74493e-08
-2.71445e-06
1.48152e-08
-2.71729e-06
1.2197e-08
-2.71903e-06
9.60289e-09
-2.71974e-06
7.02239e-09
-2.71945e-06
4.46925e-09
-2.71826e-06
1.94536e-09
-2.71626e-06
-5.19573e-10
-2.71353e-06
-2.90533e-09
-2.70989e-06
-5.23463e-09
-2.70515e-06
-7.55391e-09
-2.69925e-06
-9.86448e-09
-2.69222e-06
-1.21692e-08
-2.68404e-06
-1.44794e-08
-2.67474e-06
-1.67965e-08
-2.6643e-06
-1.91264e-08
-2.65274e-06
-2.14625e-08
-2.64004e-06
-2.3806e-08
-2.62619e-06
-2.6149e-08
-2.6112e-06
-2.84931e-08
-2.59507e-06
-3.08322e-08
-2.57778e-06
-3.31687e-08
-2.55935e-06
-3.54979e-08
-2.53977e-06
-3.7822e-08
-2.51905e-06
-4.0136e-08
-2.49719e-06
-4.24397e-08
-2.47421e-06
-4.4727e-08
-2.45011e-06
-4.69959e-08
-2.4249e-06
-4.92393e-08
-2.39858e-06
-5.14569e-08
-2.37115e-06
-5.36451e-08
-2.34265e-06
-5.58089e-08
-2.31309e-06
-5.79459e-08
-2.28249e-06
-6.006e-08
-2.25087e-06
-6.21422e-08
-2.21824e-06
-6.41946e-08
-2.18462e-06
-6.62069e-08
-2.15004e-06
-6.81827e-08
-2.11451e-06
-7.01122e-08
-2.07806e-06
-7.19985e-08
-2.04071e-06
-7.38331e-08
-2.00248e-06
-7.56195e-08
-1.9634e-06
-7.73468e-08
-1.92348e-06
-7.90137e-08
-1.88273e-06
-8.06099e-08
-1.84114e-06
-8.214e-08
-1.79868e-06
-8.36148e-08
-1.75545e-06
-8.51014e-08
-1.71151e-06
-8.65624e-08
-1.66686e-06
-8.79569e-08
-1.62151e-06
-8.93077e-08
-1.57549e-06
-9.06342e-08
-1.52882e-06
-9.19218e-08
-1.48151e-06
-9.31809e-08
-1.43359e-06
-9.43981e-08
-1.38508e-06
-9.55858e-08
-1.33599e-06
-9.67291e-08
-1.28636e-06
-9.78443e-08
-1.2362e-06
-9.89132e-08
-1.18553e-06
-9.99469e-08
-1.13438e-06
-1.00929e-07
-1.08277e-06
-1.01861e-07
-1.03073e-06
-1.02729e-07
-9.78309e-07
-1.0353e-07
-9.25529e-07
-1.04271e-07
-8.72422e-07
-1.0494e-07
-8.19025e-07
-1.05556e-07
-7.6536e-07
-1.06112e-07
-7.11459e-07
-1.06624e-07
-6.57337e-07
-1.07089e-07
-6.0302e-07
-1.07522e-07
-5.48516e-07
-1.07918e-07
-4.93847e-07
-1.0829e-07
-4.39019e-07
-1.08626e-07
-3.84055e-07
-1.08933e-07
-3.28964e-07
-1.09197e-07
-2.73767e-07
-1.09431e-07
-2.18474e-07
-1.09625e-07
-1.63106e-07
-1.09787e-07
-1.07675e-07
-1.09903e-07
-5.22107e-08
-1.09959e-07
3.24035e-09
-1.09898e-07
5.859e-08
-1.09645e-07
1.13672e-07
-1.09033e-07
1.68208e-07
-1.07739e-07
2.21698e-07
-1.05272e-07
2.7361e-07
-1.00667e-07
3.2065e-07
-9.23452e-08
-6.64523e-08
3.65832e-07
6.64045e-10
1.05396e-08
4.11551e-09
1.57716e-08
1.72881e-08
4.90514e-09
4.78168e-08
-2.32341e-08
9.5567e-08
-6.10638e-08
1.52448e-07
-9.65459e-08
2.08705e-07
-1.2134e-07
2.58273e-07
-1.33247e-07
2.98933e-07
-1.34144e-07
3.31042e-07
-1.273e-07
3.55969e-07
-1.15714e-07
3.75259e-07
-1.0157e-07
3.90051e-07
-8.62672e-08
4.01254e-07
-7.06063e-08
4.09378e-07
-5.50197e-08
4.1487e-07
-3.97235e-08
4.1796e-07
-2.4817e-08
4.18941e-07
-1.03484e-08
4.18031e-07
3.65961e-09
4.15623e-07
1.72341e-08
4.11972e-07
3.04356e-08
4.07226e-07
4.32729e-08
4.01171e-07
5.56631e-08
3.9334e-07
6.73546e-08
3.82914e-07
7.78716e-08
3.68987e-07
8.64841e-08
3.50752e-07
9.22296e-08
3.2802e-07
9.40298e-08
3.01533e-07
9.09433e-08
2.73216e-07
8.2397e-08
2.4583e-07
6.83393e-08
2.2232e-07
4.92652e-08
2.04885e-07
2.62143e-08
1.9486e-07
7.74833e-10
1.90713e-07
-2.35719e-08
1.86644e-07
-4.04225e-08
1.75734e-07
-4.34988e-08
1.55375e-07
-3.29653e-08
1.2617e-07
-1.29184e-08
8.85798e-08
1.25835e-08
4.02752e-08
4.24296e-08
-2.45397e-08
7.55978e-08
-1.12398e-07
1.11009e-07
-2.24627e-07
1.50392e-07
-3.57979e-07
1.93165e-07
-5.0573e-07
2.36513e-07
-6.59112e-07
2.77233e-07
-8.12039e-07
3.12572e-07
-9.5942e-07
3.40596e-07
-1.09647e-06
3.60793e-07
-1.22064e-06
3.72757e-07
-1.33076e-06
3.76673e-07
-1.42609e-06
3.73235e-07
-1.50705e-06
3.63286e-07
-1.5761e-06
3.47818e-07
-1.63596e-06
3.28527e-07
-1.68821e-06
3.07395e-07
-1.73473e-06
2.85613e-07
-1.7775e-06
2.64054e-07
-1.81771e-06
2.4348e-07
-1.85611e-06
2.24364e-07
-1.89334e-06
2.06926e-07
-1.92951e-06
1.91264e-07
-1.96476e-06
1.77337e-07
-1.99913e-06
1.65002e-07
-2.03257e-06
1.54088e-07
-2.06506e-06
1.44406e-07
-2.0966e-06
1.35771e-07
-2.12713e-06
1.28018e-07
-2.15665e-06
1.20994e-07
-2.1851e-06
1.14562e-07
-2.21251e-06
1.0861e-07
-2.23882e-06
1.03045e-07
-2.26405e-06
9.77873e-08
-2.28817e-06
9.27785e-08
-2.31118e-06
8.79651e-08
-2.33307e-06
8.33152e-08
-2.35382e-06
7.87947e-08
-2.37342e-06
7.43848e-08
-2.39189e-06
7.00631e-08
-2.40919e-06
6.58206e-08
-2.42535e-06
6.16434e-08
-2.44035e-06
5.75274e-08
-2.45421e-06
5.34634e-08
-2.46693e-06
4.94485e-08
-2.47851e-06
4.54769e-08
-2.48896e-06
4.15458e-08
-2.49831e-06
3.76469e-08
-2.50655e-06
3.37883e-08
-2.51372e-06
2.99575e-08
-2.51981e-06
2.61765e-08
-2.52484e-06
2.24403e-08
-2.5288e-06
1.87398e-08
-2.53171e-06
1.50815e-08
-2.53359e-06
1.14566e-08
-2.53444e-06
7.87334e-09
-2.5343e-06
4.32968e-09
-2.53317e-06
8.34294e-10
-2.53105e-06
-2.61215e-09
-2.52789e-06
-6.01621e-09
-2.52366e-06
-9.40572e-09
-2.51833e-06
-1.28028e-08
-2.5119e-06
-1.61991e-08
-2.50437e-06
-1.96026e-08
-2.49574e-06
-2.3012e-08
-2.48603e-06
-2.64392e-08
-2.47521e-06
-2.98771e-08
-2.46331e-06
-3.33302e-08
-2.45029e-06
-3.67883e-08
-2.43617e-06
-4.02535e-08
-2.42094e-06
-4.37169e-08
-2.40459e-06
-4.71807e-08
-2.38713e-06
-5.06378e-08
-2.36855e-06
-5.40901e-08
-2.34885e-06
-5.75312e-08
-2.32804e-06
-6.09612e-08
-2.30612e-06
-6.43732e-08
-2.28311e-06
-6.77647e-08
-2.25901e-06
-7.11278e-08
-2.23381e-06
-7.44578e-08
-2.20754e-06
-7.77491e-08
-2.18019e-06
-8.10011e-08
-2.15179e-06
-8.42133e-08
-2.12235e-06
-8.73883e-08
-2.0919e-06
-9.05223e-08
-2.06046e-06
-9.3612e-08
-2.02802e-06
-9.66512e-08
-1.99463e-06
-9.96356e-08
-1.96029e-06
-1.0256e-07
-1.92502e-06
-1.05422e-07
-1.88885e-06
-1.08217e-07
-1.85179e-06
-1.10941e-07
-1.81387e-06
-1.13592e-07
-1.77511e-06
-1.16166e-07
-1.73552e-06
-1.18658e-07
-1.69512e-06
-1.21065e-07
-1.65391e-06
-1.23391e-07
-1.61191e-06
-1.25648e-07
-1.56916e-06
-1.27861e-07
-1.52569e-06
-1.30018e-07
-1.48152e-06
-1.32104e-07
-1.43667e-06
-1.34138e-07
-1.39116e-06
-1.36123e-07
-1.345e-06
-1.38059e-07
-1.29822e-06
-1.39941e-07
-1.25083e-06
-1.41769e-07
-1.20285e-06
-1.4354e-07
-1.15431e-06
-1.45253e-07
-1.10523e-06
-1.46911e-07
-1.05562e-06
-1.48509e-07
-1.00551e-06
-1.50043e-07
-9.54923e-07
-1.51508e-07
-9.03888e-07
-1.52889e-07
-8.52432e-07
-1.54181e-07
-8.0059e-07
-1.55369e-07
-7.48396e-07
-1.56465e-07
-6.95882e-07
-1.57456e-07
-6.4308e-07
-1.58361e-07
-5.90019e-07
-1.59178e-07
-5.36726e-07
-1.59923e-07
-4.83223e-07
-1.60599e-07
-4.29532e-07
-1.6122e-07
-3.75669e-07
-1.6179e-07
-3.2165e-07
-1.62318e-07
-2.67487e-07
-1.62798e-07
-2.13196e-07
-1.63231e-07
-1.5879e-07
-1.63609e-07
-1.04285e-07
-1.63941e-07
-4.96897e-08
-1.64225e-07
4.98481e-09
-1.64463e-07
5.97251e-08
-1.64645e-07
1.14507e-07
-1.64741e-07
1.69296e-07
-1.64686e-07
2.2402e-07
-1.64367e-07
2.78555e-07
-1.63567e-07
3.32723e-07
-1.61905e-07
3.86223e-07
-1.58771e-07
4.38667e-07
-1.53109e-07
4.89156e-07
-1.42831e-07
-1.18301e-07
5.41004e-07
-6.44496e-11
1.07224e-08
1.15457e-08
4.35284e-09
4.79718e-08
-3.13967e-08
1.07003e-07
-8.21949e-08
1.73079e-07
-1.27095e-07
2.31829e-07
-1.55257e-07
2.76613e-07
-1.66096e-07
3.07468e-07
-1.64067e-07
3.27541e-07
-1.54197e-07
3.4045e-07
-1.40174e-07
3.48932e-07
-1.24181e-07
3.54757e-07
-1.07363e-07
3.58803e-07
-9.03046e-08
3.61533e-07
-7.33083e-08
3.6306e-07
-5.65433e-08
3.63473e-07
-4.01154e-08
3.62753e-07
-2.41003e-08
3.60975e-07
-8.55754e-09
3.58164e-07
6.45828e-09
3.5448e-07
2.09209e-08
3.5008e-07
3.48115e-08
3.45234e-07
4.81033e-08
3.40106e-07
6.07487e-08
3.34795e-07
7.26246e-08
3.29112e-07
8.34842e-08
3.22652e-07
9.28733e-08
3.14699e-07
1.00083e-07
3.04491e-07
1.04133e-07
2.91451e-07
1.03853e-07
2.75576e-07
9.81363e-08
2.57493e-07
8.6265e-08
2.38504e-07
6.8082e-08
2.19881e-07
4.46519e-08
2.01031e-07
1.94332e-08
1.76758e-07
5.30525e-10
1.40894e-07
-4.70945e-09
9.26825e-08
4.5946e-09
3.32245e-08
2.63825e-08
-3.87549e-08
5.89789e-08
-1.26103e-07
9.98782e-08
-2.29857e-07
1.46149e-07
-3.49147e-07
1.94874e-07
-4.81874e-07
2.4372e-07
-6.22421e-07
2.90938e-07
-7.64186e-07
3.34915e-07
-9.01006e-07
3.73337e-07
-1.02747e-06
4.03679e-07
-1.14007e-06
4.25185e-07
-1.23756e-06
4.38075e-07
-1.31949e-06
4.42739e-07
-1.38683e-06
4.40094e-07
-1.44139e-06
4.3125e-07
-1.48553e-06
4.17382e-07
-1.5219e-06
3.99664e-07
-1.55331e-06
3.79239e-07
-1.58208e-06
3.57314e-07
-1.60967e-06
3.34994e-07
-1.63708e-06
3.13034e-07
-1.66497e-06
2.91953e-07
-1.69359e-06
2.72111e-07
-1.72295e-06
2.53724e-07
-1.75292e-06
2.36894e-07
-1.78326e-06
2.21612e-07
-1.81375e-06
2.07821e-07
-1.84416e-06
1.95403e-07
-1.87429e-06
1.84209e-07
-1.90397e-06
1.74083e-07
-1.93308e-06
1.64872e-07
-1.9615e-06
1.56437e-07
-1.98915e-06
1.48643e-07
-2.01595e-06
1.41373e-07
-2.04186e-06
1.34528e-07
-2.06683e-06
1.28025e-07
-2.09084e-06
1.21793e-07
-2.11383e-06
1.15777e-07
-2.1358e-06
1.09934e-07
-2.15672e-06
1.0423e-07
-2.17657e-06
9.86406e-08
-2.19534e-06
9.31464e-08
-2.21301e-06
8.77323e-08
-2.22958e-06
8.23892e-08
-2.24505e-06
7.71089e-08
-2.25941e-06
7.1887e-08
-2.27266e-06
6.67191e-08
-2.28481e-06
6.16031e-08
-2.29586e-06
5.65358e-08
-2.30582e-06
5.15149e-08
-2.3147e-06
4.65396e-08
-2.32253e-06
4.16004e-08
-2.32929e-06
3.67241e-08
-2.33502e-06
3.1883e-08
-2.3397e-06
2.71017e-08
-2.34335e-06
2.23668e-08
-2.34596e-06
1.76824e-08
-2.34755e-06
1.30411e-08
-2.34812e-06
8.44678e-09
-2.34767e-06
3.89522e-09
-2.34619e-06
-6.13549e-10
-2.34368e-06
-5.08582e-09
-2.34011e-06
-9.53425e-09
-2.33548e-06
-1.39734e-08
-2.32978e-06
-1.84205e-08
-2.32302e-06
-2.28706e-08
-2.31521e-06
-2.73346e-08
-2.30633e-06
-3.18093e-08
-2.2964e-06
-3.63063e-08
-2.28542e-06
-4.08168e-08
-2.27337e-06
-4.53463e-08
-2.26025e-06
-4.98831e-08
-2.24606e-06
-5.44306e-08
-2.2308e-06
-5.8978e-08
-2.21445e-06
-6.35282e-08
-2.19702e-06
-6.80718e-08
-2.1785e-06
-7.26106e-08
-2.15891e-06
-7.71356e-08
-2.13824e-06
-8.1647e-08
-2.11649e-06
-8.61349e-08
-2.09368e-06
-9.05972e-08