/*--------------------------------*- C++ -*----------------------------------*\
  =========                 |
  \\      /  F ield         | OpenFOAM: The Open Source CFD Toolbox
   \\    /   O peration     | Website:  https://openfoam.org
    \\  /    A nd           | Version:  13
     \\/     M anipulation  |
\*---------------------------------------------------------------------------*/
FoamFile
{
    format      ascii;
    class       volVectorField;
    location    "1500";
    object      U;
}
// * * * * * * * * * * * * * * * * * * * * * * * * * * * * * * * * * * * * * //

dimensions      [0 1 -1 0 0 0 0];

internalField   nonuniform List<vector> 
12225
(
(9.74983 0.0559694 0)
(9.26709 0.0986631 0)
(8.804 0.102 0)
(8.34788 0.102948 0)
(7.94126 0.0942574 0)
(7.59983 0.072113 0)
(7.31332 0.0519705 0)
(7.0675 0.0474651 0)
(6.87157 0.0336099 0)
(6.71222 0.0275393 0)
(6.59335 0.0383082 0)
(6.49576 0.0273273 0)
(6.41959 0.00621306 0)
(6.35589 0.000612842 0)
(6.30133 0.00478893 0)
(6.26325 0.00616101 0)
(6.23676 -0.00577154 0)
(6.23249 -0.00503166 0)
(10.1108 0.0557707 0)
(10.3091 0.093018 0)
(10.4417 0.0977503 0)
(10.5019 0.0967993 0)
(10.503 0.094245 0)
(10.4598 0.0926011 0)
(10.4047 0.0892962 0)
(10.3311 0.0809377 0)
(10.2374 0.0747402 0)
(10.1416 0.0668512 0)
(10.0293 0.0565772 0)
(9.91025 0.0525672 0)
(9.80581 0.0502944 0)
(9.71135 0.0447624 0)
(9.62192 0.0374962 0)
(9.53467 0.0316382 0)
(9.45199 0.0259022 0)
(9.37828 0.0148425 0)
(10.0081 0.0469905 0)
(10.057 0.0684587 0)
(10.1101 0.0697049 0)
(10.1598 0.0778918 0)
(10.2115 0.0844359 0)
(10.2594 0.0842479 0)
(10.2999 0.0821457 0)
(10.3329 0.0815719 0)
(10.3576 0.0785873 0)
(10.3738 0.0750103 0)
(10.3839 0.0733146 0)
(10.3886 0.0692934 0)
(10.3871 0.0646356 0)
(10.3813 0.062207 0)
(10.3734 0.0592614 0)
(10.3643 0.0542377 0)
(10.3524 0.0468708 0)
(10.3369 0.0384599 0)
(10.0046 0.0289926 0)
(10.0381 0.0554397 0)
(10.06 0.0619585 0)
(10.0771 0.069799 0)
(10.0965 0.0747048 0)
(10.1159 0.0738988 0)
(10.1335 0.070867 0)
(10.1505 0.0686328 0)
(10.1669 0.0656153 0)
(10.1821 0.0627518 0)
(10.1972 0.0610241 0)
(10.2121 0.0577851 0)
(10.2251 0.0537471 0)
(10.2368 0.0509528 0)
(10.2481 0.0483723 0)
(10.2588 0.0445709 0)
(10.2673 0.0389183 0)
(10.2739 0.032938 0)
(10.0037 0.0243315 0)
(10.0308 0.0534745 0)
(10.0512 0.0620234 0)
(10.0672 0.0679161 0)
(10.0826 0.0714503 0)
(10.0966 0.0711395 0)
(10.1086 0.0690376 0)
(10.1191 0.06716 0)
(10.1287 0.0647176 0)
(10.1372 0.0622614 0)
(10.1456 0.0603838 0)
(10.1539 0.0575049 0)
(10.1613 0.0540014 0)
(10.1681 0.051037 0)
(10.175 0.0480061 0)
(10.1817 0.0441249 0)
(10.1872 0.0391835 0)
(10.1919 0.0342465 0)
(10.0028 0.0194408 0)
(10.0234 0.0476585 0)
(10.0427 0.0573144 0)
(10.0585 0.0624946 0)
(10.073 0.0659532 0)
(10.0862 0.0665524 0)
(10.0978 0.0652565 0)
(10.1079 0.063589 0)
(10.1167 0.061352 0)
(10.1246 0.0589349 0)
(10.132 0.0566634 0)
(10.1391 0.0537088 0)
(10.1453 0.0503272 0)
(10.1511 0.047153 0)
(10.1566 0.0438637 0)
(10.1619 0.0400452 0)
(10.1662 0.0356668 0)
(10.1698 0.0313344 0)
(10.0026 0.0157013 0)
(10.017 0.0417733 0)
(10.0353 0.0523694 0)
(10.0507 0.0576522 0)
(10.0641 0.0611736 0)
(10.0765 0.0622257 0)
(10.0877 0.0614281 0)
(10.0974 0.0599664 0)
(10.106 0.0579588 0)
(10.1137 0.0557094 0)
(10.1209 0.0534188 0)
(10.1277 0.050687 0)
(10.1337 0.0476642 0)
(10.1392 0.0446724 0)
(10.1445 0.0415293 0)
(10.1492 0.0380334 0)
(10.1532 0.0342077 0)
(10.1566 0.0303812 0)
(10.0026 0.0129706 0)
(10.0121 0.0361323 0)
(10.0291 0.0472493 0)
(10.0443 0.0525368 0)
(10.0567 0.055906 0)
(10.0683 0.0573211 0)
(10.0788 0.0570313 0)
(10.0882 0.0558815 0)
(10.0965 0.0541554 0)
(10.1041 0.0521293 0)
(10.1111 0.049924 0)
(10.1176 0.0473712 0)
(10.1235 0.044569 0)
(10.1289 0.0416814 0)
(10.1339 0.038628 0)
(10.1384 0.0353251 0)
(10.1422 0.0318183 0)
(10.1455 0.0283096 0)
(10.0019 0.0110121 0)
(10.0096 0.0309076 0)
(10.0245 0.0420783 0)
(10.0385 0.0475933 0)
(10.0502 0.0511507 0)
(10.0611 0.0528102 0)
(10.0712 0.0528602 0)
(10.0803 0.0519738 0)
(10.0885 0.0504833 0)
(10.0959 0.0486253 0)
(10.1027 0.0465078 0)
(10.109 0.0441029 0)
(10.1148 0.0414855 0)
(10.1201 0.0387391 0)
(10.1249 0.0358403 0)
(10.1293 0.0327693 0)
(10.1331 0.0295769 0)
(10.1364 0.0263914 0)
(10.0012 0.00935367 0)
(10.008 0.0265225 0)
(10.0205 0.0373883 0)
(10.0331 0.0430873 0)
(10.0442 0.0466186 0)
(10.0547 0.0483401 0)
(10.0644 0.048646 0)
(10.0733 0.0479819 0)
(10.0814 0.0466842 0)
(10.0888 0.0449837 0)
(10.0955 0.0429909 0)
(10.1017 0.0407339 0)
(10.1074 0.0382749 0)
(10.1126 0.0356724 0)
(10.1173 0.0329368 0)
(10.1216 0.030082 0)
(10.1253 0.0271539 0)
(10.1286 0.0242388 0)
(10.0008 0.00785598 0)
(10.0065 0.0225642 0)
(10.017 0.0327403 0)
(10.0283 0.0384211 0)
(10.0388 0.0418652 0)
(10.0487 0.0436728 0)
(10.0581 0.0441564 0)
(10.0668 0.0436895 0)
(10.0748 0.0425836 0)
(10.0821 0.0410548 0)
(10.0888 0.0392159 0)
(10.0949 0.0371265 0)
(10.1005 0.0348444 0)
(10.1057 0.0324144 0)
(10.1103 0.0298704 0)
(10.1145 0.0272362 0)
(10.1182 0.0245619 0)
(10.1215 0.0219068 0)
(10.0006 0.00663726 0)
(10.0054 0.0192328 0)
(10.0143 0.0285353 0)
(10.0245 0.0340182 0)
(10.0343 0.0374178 0)
(10.0437 0.0392388 0)
(10.0527 0.0398483 0)
(10.0612 0.0395427 0)
(10.069 0.0386017 0)
(10.0761 0.0372242 0)
(10.0827 0.0355326 0)
(10.0888 0.0336013 0)
(10.0944 0.0314818 0)
(10.0995 0.0292301 0)
(10.1041 0.0268704 0)
(10.1083 0.0244486 0)
(10.1119 0.021996 0)
(10.1153 0.0195684 0)
(10.0005 0.0055685 0)
(10.0046 0.0162873 0)
(10.0122 0.0246337 0)
(10.0212 0.0297581 0)
(10.0303 0.0329683 0)
(10.0391 0.03476 0)
(10.0477 0.0354295 0)
(10.0558 0.0352508 0)
(10.0633 0.0344606 0)
(10.0703 0.0332423 0)
(10.0768 0.0317127 0)
(10.0828 0.0299469 0)
(10.0883 0.0279998 0)
(10.0934 0.0259267 0)
(10.098 0.0237579 0)
(10.1021 0.0215392 0)
(10.1058 0.0192995 0)
(10.1092 0.017083 0)
(10.0004 0.00452625 0)
(10.0038 0.013324 0)
(10.0102 0.0205124 0)
(10.0181 0.0250875 0)
(10.0263 0.0280112 0)
(10.0345 0.0296727 0)
(10.0425 0.0303513 0)
(10.0501 0.0302545 0)
(10.0573 0.0295943 0)
(10.0641 0.0285222 0)
(10.0704 0.0271585 0)
(10.0763 0.0255605 0)
(10.0817 0.0238067 0)
(10.0866 0.0219254 0)
(10.0911 0.0199769 0)
(10.0952 0.01798 0)
(10.0989 0.0159781 0)
(10.1023 0.0139978 0)
(10.0003 0.00348417 0)
(10.0031 0.0103492 0)
(10.0084 0.0162202 0)
(10.0152 0.0200558 0)
(10.0226 0.0225474 0)
(10.03 0.0239783 0)
(10.0374 0.0245715 0)
(10.0445 0.0245025 0)
(10.0513 0.0239303 0)
(10.0578 0.0229941 0)
(10.0638 0.021782 0)
(10.0695 0.0203706 0)
(10.0747 0.0188066 0)
(10.0795 0.0171486 0)
(10.0839 0.0154241 0)
(10.088 0.013677 0)
(10.0916 0.01192 0)
(10.095 0.0101991 0)
(10.0002 0.0024461 0)
(10.0026 0.00736093 0)
(10.007 0.0117715 0)
(10.0128 0.0146802 0)
(10.0193 0.0165825 0)
(10.026 0.0176612 0)
(10.0327 0.0180701 0)
(10.0394 0.0179538 0)
(10.0457 0.0174221 0)
(10.0518 0.0165895 0)
(10.0576 0.0155207 0)
(10.063 0.0142881 0)
(10.068 0.0129294 0)
(10.0726 0.0114979 0)
(10.0769 0.010018 0)
(10.0809 0.00852608 0)
(10.0845 0.00703384 0)
(10.0878 0.00557856 0)
(10.0002 0.00140749 0)
(10.0021 0.00435109 0)
(10.0058 0.00716895 0)
(10.0108 0.00896241 0)
(10.0166 0.0101096 0)
(10.0227 0.0106868 0)
(10.0288 0.0108043 0)
(10.035 0.0105439 0)
(10.0409 0.00999545 0)
(10.0467 0.0092165 0)
(10.0521 0.00827655 0)
(10.0573 0.00720579 0)
(10.0621 0.00605898 0)
(10.0666 0.00485383 0)
(10.0707 0.00363062 0)
(10.0746 0.00239964 0)
(10.0781 0.00118595 0)
(10.0814 4.45556e-06 0)
(10.0002 0.000339594 0)
(10.0018 0.00124374 0)
(10.0051 0.00232603 0)
(10.0095 0.00281831 0)
(10.0148 0.00301941 0)
(10.0203 0.0029404 0)
(10.0261 0.00262752 0)
(10.0318 0.00212287 0)
(10.0374 0.00146846 0)
(10.0429 0.000696495 0)
(10.0481 -0.000161239 0)
(10.0531 -0.00108009 0)
(10.0577 -0.00203503 0)
(10.0621 -0.0030076 0)
(10.0661 -0.00397934 0)
(10.0699 -0.0049374 0)
(10.0734 -0.0058699 0)
(10.0767 -0.00676402 0)
(10.0002 -0.000837087 0)
(10.0017 -0.00215401 0)
(10.0048 -0.00302063 0)
(10.0091 -0.00402919 0)
(10.0141 -0.00494934 0)
(10.0195 -0.00584402 0)
(10.025 -0.00670534 0)
(10.0306 -0.00755985 0)
(10.0361 -0.00838777 0)
(10.0414 -0.00921407 0)
(10.0465 -0.0100194 0)
(10.0513 -0.0108187 0)
(10.0559 -0.0115923 0)
(10.0602 -0.0123482 0)
(10.0642 -0.0130696 0)
(10.068 -0.0137617 0)
(10.0715 -0.0144093 0)
(10.0748 -0.0150206 0)
(10.0002 -0.00198889 0)
(10.0019 -0.00544278 0)
(10.0053 -0.00820158 0)
(10.01 -0.0106183 0)
(10.0153 -0.0125944 0)
(10.0209 -0.0142287 0)
(10.0266 -0.0156163 0)
(10.0323 -0.0167756 0)
(10.0379 -0.0177804 0)
(10.0433 -0.0186425 0)
(10.0485 -0.019418 0)
(10.0534 -0.0201035 0)
(10.058 -0.0207339 0)
(10.0624 -0.0212978 0)
(10.0665 -0.0218184 0)
(10.0703 -0.0222826 0)
(10.0739 -0.0227021 0)
(10.0773 -0.0230792 0)
(10.0003 -0.00307226 0)
(10.0023 -0.00848282 0)
(10.0064 -0.0128453 0)
(10.0117 -0.0163669 0)
(10.0175 -0.0191216 0)
(10.0235 -0.0212999 0)
(10.0296 -0.0230371 0)
(10.0356 -0.0243946 0)
(10.0415 -0.0254787 0)
(10.0471 -0.0263393 0)
(10.0524 -0.027056 0)
(10.0574 -0.0276395 0)
(10.0622 -0.0281405 0)
(10.0666 -0.0285547 0)
(10.0708 -0.0289179 0)
(10.0747 -0.0292175 0)
(10.0784 -0.0294679 0)
(10.0818 -0.029683 0)
(10.0004 -0.00427817 0)
(10.003 -0.0117583 0)
(10.0081 -0.0175892 0)
(10.0143 -0.0220128 0)
(10.0209 -0.0253606 0)
(10.0275 -0.0279483 0)
(10.0341 -0.0299033 0)
(10.0405 -0.0313687 0)
(10.0467 -0.0324466 0)
(10.0525 -0.0332703 0)
(10.058 -0.0338846 0)
(10.0632 -0.0343646 0)
(10.068 -0.0347171 0)
(10.0726 -0.0350014 0)
(10.0768 -0.0352046 0)
(10.0808 -0.0353759 0)
(10.0845 -0.0354739 0)
(10.088 -0.0355784 0)
(10.0005 -0.00571312 0)
(10.0041 -0.0154588 0)
(10.0106 -0.0225868 0)
(10.018 -0.0276739 0)
(10.0255 -0.0314738 0)
(10.0328 -0.0343442 0)
(10.0399 -0.0364033 0)
(10.0468 -0.0378136 0)
(10.0532 -0.0387854 0)
(10.0593 -0.0394692 0)
(10.0649 -0.0399507 0)
(10.0701 -0.040281 0)
(10.075 -0.0404949 0)
(10.0796 -0.0406325 0)
(10.0838 -0.040713 0)
(10.0878 -0.0407453 0)
(10.0915 -0.0407231 0)
(10.095 -0.0407171 0)
(10.0008 -0.00750498 0)
(10.0059 -0.0197499 0)
(10.0142 -0.0278835 0)
(10.0231 -0.0333825 0)
(10.0314 -0.03749 0)
(10.0394 -0.0404951 0)
(10.0472 -0.0425398 0)
(10.0545 -0.0438549 0)
(10.0612 -0.0446519 0)
(10.0674 -0.0451036 0)
(10.0731 -0.045354 0)
(10.0784 -0.0454503 0)
(10.0833 -0.0454657 0)
(10.0878 -0.0454402 0)
(10.0921 -0.0454157 0)
(10.096 -0.0453679 0)
(10.0997 -0.04528 0)
(10.1032 -0.0452343 0)
(10.0011 -0.00980756 0)
(10.0086 -0.0247585 0)
(10.0193 -0.0335619 0)
(10.0297 -0.0391608 0)
(10.039 -0.0433348 0)
(10.0478 -0.0463322 0)
(10.0564 -0.0482433 0)
(10.0643 -0.0493297 0)
(10.0714 -0.0499271 0)
(10.0779 -0.0502309 0)
(10.0837 -0.0502864 0)
(10.0891 -0.0501627 0)
(10.094 -0.0499478 0)
(10.0985 -0.0497227 0)
(10.1027 -0.0494966 0)
(10.1066 -0.0492732 0)
(10.1103 -0.0490344 0)
(10.1137 -0.048892 0)
(10.0018 -0.0128866 0)
(10.0127 -0.030278 0)
(10.0264 -0.0395174 0)
(10.0387 -0.0452069 0)
(10.0493 -0.0493091 0)
(10.0595 -0.0519915 0)
(10.0691 -0.0534734 0)
(10.0778 -0.0541831 0)
(10.0857 -0.0544422 0)
(10.0928 -0.0544797 0)
(10.0991 -0.0544048 0)
(10.1049 -0.0541884 0)
(10.1101 -0.0538966 0)
(10.1149 -0.0536348 0)
(10.1193 -0.0534718 0)
(10.1233 -0.0532986 0)
(10.1271 -0.0530755 0)
(10.1307 -0.0530224 0)
(10.0031 -0.017564 0)
(10.0195 -0.036196 0)
(10.0379 -0.0447563 0)
(10.0535 -0.050712 0)
(10.0672 -0.0553282 0)
(10.0802 -0.0579808 0)
(10.0924 -0.0590178 0)
(10.1033 -0.0591874 0)
(10.1132 -0.0589683 0)
(10.1219 -0.0585008 0)
(10.1299 -0.0578438 0)
(10.1374 -0.057174 0)
(10.1441 -0.0565513 0)
(10.1503 -0.0559554 0)
(10.1562 -0.0554736 0)
(10.1618 -0.0551 0)
(10.1672 -0.0547377 0)
(10.1722 -0.0546252 0)
(10.0083 -0.0267669 0)
(10.0387 -0.0456726 0)
(10.0699 -0.0510706 0)
(10.0954 -0.0561357 0)
(10.1191 -0.0611763 0)
(10.1415 -0.0644407 0)
(10.1617 -0.0660369 0)
(10.1794 -0.0666451 0)
(10.1946 -0.0666851 0)
(10.208 -0.0664302 0)
(10.2198 -0.0659101 0)
(10.2301 -0.0652241 0)
(10.2389 -0.0645146 0)
(10.2465 -0.0639178 0)
(10.2528 -0.0634798 0)
(10.2581 -0.063238 0)
(10.2629 -0.063105 0)
(10.2672 -0.0636297 0)
(10.0435 -0.0360168 0)
(10.1417 -0.063395 0)
(10.212 -0.0681695 0)
(10.2589 -0.0696569 0)
(10.2867 -0.0707371 0)
(10.2993 -0.0706258 0)
(10.2983 -0.0695073 0)
(10.2865 -0.0679461 0)
(10.2664 -0.0663543 0)
(10.2402 -0.0648646 0)
(10.2105 -0.0634458 0)
(10.1782 -0.0620798 0)
(10.1435 -0.0606975 0)
(10.107 -0.0594234 0)
(10.0697 -0.0583506 0)
(10.0329 -0.0573933 0)
(9.99748 -0.0567508 0)
(9.96268 -0.0574327 0)
(9.87844 -0.0385022 0)
(9.63247 -0.071965 0)
(9.37034 -0.0850826 0)
(9.09964 -0.0888698 0)
(8.8429 -0.0868851 0)
(8.60905 -0.0817334 0)
(8.39806 -0.0753642 0)
(8.20785 -0.0685802 0)
(8.03709 -0.0619044 0)
(7.88388 -0.0559397 0)
(7.74474 -0.0508013 0)
(7.6185 -0.0460331 0)
(7.50452 -0.0414396 0)
(7.40125 -0.0373472 0)
(7.30687 -0.0341049 0)
(7.2194 -0.031724 0)
(7.13633 -0.0296901 0)
(7.05937 -0.0287305 0)
(-0.00241288 0.00717069 -7.98167e-19)
(-0.0118828 0.0121808 9.26288e-19)
(-0.0245965 0.0137818 -6.42139e-19)
(-0.0386309 0.0124535 -1.96234e-19)
(-0.049531 0.00741682 3.03003e-19)
(-0.0502529 -0.00139975 -7.57086e-20)
(-0.0364299 -0.0135597 -7.50894e-20)
(-0.0110173 -0.0268405 3.98894e-19)
(0.0228815 -0.0373406 -1.97204e-19)
(0.0622873 -0.0428805 4.58874e-20)
(0.104675 -0.0440253 1.46288e-20)
(0.146609 -0.0418178 -1.56298e-19)
(0.185251 -0.0372683 2.16462e-19)
(0.218807 -0.0311552 2.19936e-19)
(0.246326 -0.0240764 1.88472e-20)
(0.267311 -0.0163987 7.92669e-20)
(0.281435 -0.00835271 3.1167e-20)
(0.288726 7.85196e-05 5.42558e-20)
(0.288528 0.00886322 8.08145e-20)
(0.280518 0.0176164 8.74501e-21)
(0.265283 0.0256301 -2.98523e-20)
(0.243392 0.0321343 2.54683e-19)
(0.215655 0.0364026 -3.42387e-20)
(0.183275 0.0378236 3.00929e-19)
(0.147928 0.0359288 -6.98136e-20)
(0.111697 0.0305895 3.07236e-19)
(0.0769688 0.0222405 1.85514e-19)
(0.0461844 0.0121675 1.49933e-19)
(0.0214222 0.00268687 -7.61969e-19)
(0.00367329 -0.00369099 -1.72659e-19)
(-0.00792678 -0.00656328 -1.19195e-18)
(-0.0149677 -0.00797382 6.56647e-19)
(-0.0173501 -0.00950532 4.70824e-19)
(-0.0136497 -0.0122021 -5.85223e-19)
(-0.00382449 -0.0164031 -9.24355e-19)
(0.0133836 -0.0219112 -5.13235e-20)
(0.03796 -0.0275484 2.03334e-19)
(0.0671848 -0.0305415 3.73615e-19)
(0.0970254 -0.0296245 2.0944e-19)
(0.1225 -0.0246916 4.20259e-19)
(0.140111 -0.0173489 1.54147e-19)
(0.148904 -0.0100536 3.94982e-20)
(0.150594 -0.00471045 -5.26787e-19)
(0.148083 -0.00228529 -1.08716e-19)
(0.144564 -0.0036402 2.26468e-19)
(0.141988 -0.00982579 1.17708e-20)
(0.137943 -0.0199624 5.5042e-19)
(0.1263 -0.0275633 1.81877e-19)
(0.0996744 -0.0221777 7.98506e-20)
(0.0536432 -0.00341605 -7.89388e-19)
(-0.0215172 0.0174432 5.11898e-19)
(-0.116769 0.0391101 2.72828e-20)
(-0.222372 0.065312 2.58895e-19)
(-0.340193 0.0893619 1.59306e-19)
(-0.469392 0.0978609 5.24838e-20)
(-0.605905 0.100795 1.04169e-19)
(-0.738515 0.109304 1.22411e-19)
(-0.869631 0.11277 -1.21484e-19)
(-0.997878 0.107508 4.50772e-20)
(-1.11883 0.101761 4.81319e-20)
(-1.23151 0.094737 -1.10113e-19)
(-1.33642 0.0861598 -6.94832e-20)
(-1.43286 0.0788083 5.24941e-20)
(-1.52153 0.071416 6.15668e-20)
(-1.60309 0.0652789 1.69638e-20)
(-1.67845 0.0599423 -6.43318e-20)
(-1.74814 0.0549615 7.00809e-21)
(-1.81283 0.0505965 3.29344e-21)
(-1.87305 0.0466917 1.63479e-20)
(-1.92935 0.0432977 7.95081e-20)
(-1.98218 0.0402814 -3.94559e-21)
(-2.03193 0.0375995 -5.71174e-20)
(-2.0789 0.035201 6.13866e-20)
(-2.12336 0.0330158 2.23244e-20)
(-2.16552 0.0310313 -3.60612e-20)
(-2.20557 0.0291826 2.99289e-20)
(-2.24363 0.027475 -4.60101e-21)
(-2.2798 0.0258596 5.75954e-20)
(-2.31416 0.024348 2.65125e-20)
(-2.34679 0.0228977 -3.91264e-20)
(-2.37776 0.0215241 -1.11703e-20)
(-2.40711 0.0201966 2.20901e-21)
(-2.43489 0.0189294 4.38615e-20)
(-2.46113 0.0176975 5.44157e-20)
(-2.48586 0.0165111 4.78651e-20)
(-2.50912 0.0153531 -4.85336e-20)
(-2.53093 0.0142267 1.03134e-19)
(-2.5513 0.0131223 -4.0896e-21)
(-2.57028 0.0120437 7.37307e-20)
(-2.58787 0.0109777 -1.04285e-19)
(-2.60408 0.00994114 -5.5843e-20)
(-2.61893 0.00891 4.68606e-20)
(-2.63241 0.00788605 6.80087e-20)
(-2.64452 0.00685428 -1.02955e-20)
(-2.65524 0.00581114 -6.36401e-20)
(-2.66453 0.0047469 -6.30498e-20)
(-2.67237 0.00366168 6.45217e-20)
(-2.67871 0.00256114 -3.46755e-20)
(-2.6835 0.0014741 -8.25093e-20)
(-2.6867 0.000479156 -3.58661e-20)
(-2.68827 -0.000315122 8.82661e-20)
(-2.68873 -0.00095634 4.42153e-20)
(-2.68802 -0.00156607 6.59321e-20)
(-2.68618 -0.00215324 -4.02185e-20)
(-2.68324 -0.00273835 1.27809e-20)
(-2.67921 -0.00331512 4.42954e-21)
(-2.67409 -0.00389579 -8.10177e-21)
(-2.66787 -0.00446928 -1.751e-20)
(-2.66056 -0.00504531 -2.62284e-20)
(-2.65214 -0.00561296 -4.25546e-20)
(-2.64261 -0.0061813 -5.81355e-20)
(-2.63195 -0.00674068 3.0683e-20)
(-2.62018 -0.00729943 -4.2688e-20)
(-2.60728 -0.0078488 -4.16133e-20)
(-2.59325 -0.00839616 7.30723e-20)
(-2.5781 -0.00893304 -4.30136e-21)
(-2.56181 -0.00946565 -4.65239e-20)
(-2.54441 -0.00998648 -4.83051e-20)
(-2.52588 -0.0105013 4.44062e-20)
(-2.50624 -0.011004 3.30792e-21)
(-2.48548 -0.0114986 1.32241e-20)
(-2.4636 -0.0119802 -8.61881e-21)
(-2.44062 -0.0124538 -2.50656e-20)
(-2.41656 -0.0129142 2.10808e-20)
(-2.39143 -0.0133674 -1.84977e-20)
(-2.36523 -0.0138063 1.66083e-20)
(-2.33799 -0.0142373 2.23084e-20)
(-2.30972 -0.0146542 -7.83792e-21)
(-2.28041 -0.0150638 2.14419e-20)
(-2.2501 -0.0154583 -1.85474e-20)
(-2.21878 -0.0158333 4.37292e-20)
(-2.1865 -0.0161836 -3.68642e-21)
(-2.15325 -0.016506 -4.29694e-20)
(-2.11907 -0.016787 9.61273e-21)
(-2.08397 -0.0169976 -2.11519e-21)
(-2.04802 -0.0170771 9.35439e-21)
(-2.01127 -0.0169536 8.84087e-21)
(-1.97378 -0.0166683 -3.71016e-21)
(-1.93547 -0.0166911 5.20993e-22)
(-1.89623 -0.0169926 -6.05171e-22)
(-1.85614 -0.0172183 1.91372e-20)
(-1.81525 -0.017452 2.26327e-20)
(-1.77358 -0.0176864 -1.45473e-20)
(-1.73115 -0.0179236 -1.77471e-20)
(-1.68798 -0.0181626 -3.47892e-20)
(-1.64407 -0.0184051 -5.43839e-20)
(-1.59944 -0.0186513 -4.34006e-20)
(-1.55412 -0.0189005 -7.3607e-20)
(-1.50811 -0.0191556 3.78414e-20)
(-1.46144 -0.0194105 3.641e-20)
(-1.4141 -0.0196712 6.46702e-20)
(-1.36615 -0.0199288 4.92952e-20)
(-1.31757 -0.0201902 1.43276e-19)
(-1.26842 -0.020445 9.89895e-21)
(-1.21871 -0.0207011 6.46422e-21)
(-1.16848 -0.0209549 -1.14629e-19)
(-1.11775 -0.0212055 1.84355e-19)
(-1.06655 -0.0214577 -1.11201e-19)
(-1.01491 -0.021709 1.56808e-20)
(-0.962854 -0.0219622 5.74797e-20)
(-0.910391 -0.0222172 2.12373e-20)
(-0.857538 -0.022476 5.47132e-20)
(-0.804308 -0.0227384 2.61833e-19)
(-0.750707 -0.0230052 1.30352e-19)
(-0.696747 -0.0232758 6.21215e-20)
(-0.642437 -0.0235504 8.87471e-20)
(-0.587792 -0.0238293 2.52672e-19)
(-0.532825 -0.0241146 -1.11471e-20)
(-0.477549 -0.0244075 2.95902e-19)
(-0.421978 -0.0247094 4.30339e-19)
(-0.366125 -0.02502 4.21979e-19)
(-0.310013 -0.0253353 -1.54862e-20)
(-0.253688 -0.025649 4.04234e-20)
(-0.197224 -0.0259657 -9.64051e-20)
(-0.140769 -0.0262345 -1.21999e-18)
(-0.084628 -0.0263249 6.0979e-19)
(-0.0291104 -0.0260258 4.53944e-19)
(0.0226597 -0.0245246 -8.82421e-19)
(0.0800441 -0.0216006 -8.02348e-19)
(0.0965664 -0.00980129 1.17407e-18)
(0.000103062 0.0193306 2.23736e-18)
(-0.00549975 0.0334102 -1.76558e-18)
(-0.0112689 0.0355378 -7.49998e-19)
(-0.0123735 0.0274858 2.11949e-18)
(-0.000459039 0.0079454 4.61922e-19)
(0.0267118 -0.0256578 2.00582e-19)
(0.0634876 -0.0654496 -1.24684e-19)
(0.106568 -0.0997636 -4.54697e-19)
(0.151958 -0.122204 -2.54334e-20)
(0.196177 -0.131617 -3.21787e-19)
(0.236801 -0.130127 1.70492e-20)
(0.272706 -0.12091 -4.41643e-21)
(0.303439 -0.106846 9.82357e-20)
(0.32895 -0.0900596 1.40405e-20)
(0.349408 -0.0719865 -3.05305e-20)
(0.365095 -0.0534738 -2.55589e-19)
(0.376377 -0.0349585 -5.51405e-20)
(0.38347 -0.0166137 2.4186e-19)
(0.387137 0.00153883 -2.82429e-19)
(0.387594 0.0194559 7.88987e-20)
(0.384525 0.0368561 7.16752e-21)
(0.377454 0.053281 1.57287e-19)
(0.365831 0.0680638 1.85971e-19)
(0.34911 0.0802935 1.63306e-19)
(0.326965 0.0888816 2.21182e-19)
(0.29941 0.0927212 -1.33165e-19)
(0.267052 0.0909287 3.6095e-20)
(0.231196 0.0832749 5.04498e-20)
(0.193871 0.0704668 -2.21065e-19)
(0.157743 0.0541134 -1.81517e-19)
(0.125853 0.0359834 -3.54111e-19)
(0.101313 0.0172693 -1.32864e-19)
(0.0867299 -0.00179165 -1.17389e-18)
(0.0832053 -0.0210199 4.92943e-19)
(0.0907216 -0.0399791 -6.27436e-19)
(0.107289 -0.0583178 6.31186e-19)
(0.128448 -0.0723802 -4.95475e-19)
(0.148177 -0.0760063 1.17111e-19)
(0.161607 -0.0672877 2.6737e-19)
(0.166797 -0.0501503 -2.02885e-19)
(0.163724 -0.0299276 1.79071e-19)
(0.15327 -0.013019 -7.91644e-20)
(0.136276 -0.00276115 -3.36829e-19)
(0.111808 0.0030313 -1.09884e-18)
(0.0733455 0.00986174 -9.15195e-19)
(0.0129004 0.0257976 1.16717e-20)
(-0.0825226 0.0593146 -8.99778e-19)
(-0.203674 0.102288 -1.58222e-19)
(-0.334679 0.146646 3.96194e-19)
(-0.4731 0.187832 4.63522e-19)
(-0.618044 0.221707 8.94573e-20)
(-0.76387 0.247428 -3.29067e-20)
(-0.906928 0.265393 -3.01453e-20)
(-1.04419 0.275522 -8.84762e-20)
(-1.17435 0.276983 -6.3511e-20)
(-1.2935 0.27027 -1.56597e-19)
(-1.40067 0.258457 -1.75178e-19)
(-1.4962 0.243324 -3.80325e-20)
(-1.58079 0.225967 2.45091e-20)
(-1.65578 0.207678 -1.21052e-19)
(-1.72272 0.189721 9.10803e-20)
(-1.78262 0.172637 -3.87344e-20)
(-1.83673 0.157088 -1.52575e-19)
(-1.88636 0.143059 1.16781e-20)
(-1.93202 0.130573 1.0908e-19)
(-1.9744 0.119646 -4.17807e-20)
(-2.01405 0.110074 4.60312e-21)
(-2.05143 0.101686 -9.61303e-20)
(-2.0868 0.0943392 3.30365e-20)
(-2.12043 0.0878498 -5.62415e-20)
(-2.15246 0.0820971 1.00488e-21)
(-2.18302 0.0769236 -6.93764e-20)
(-2.21219 0.0722543 2.25302e-21)
(-2.24005 0.0679657 -4.10978e-20)
(-2.26665 0.0640212 5.44354e-20)
(-2.29202 0.0603268 -9.39607e-20)
(-2.31621 0.0568728 1.22365e-20)
(-2.33921 0.0535925 -9.4964e-20)
(-2.36104 0.0504877 3.74531e-21)
(-2.38171 0.0475041 7.50056e-20)
(-2.40125 0.0446516 1.47209e-20)
(-2.41964 0.0418917 -4.40288e-20)
(-2.43691 0.0392356 -6.5862e-20)
(-2.45306 0.0366541 3.77729e-20)
(-2.4681 0.0341555 1.06452e-19)
(-2.48204 0.0317189 -3.36942e-20)
(-2.49488 0.0293457 -1.09365e-21)
(-2.50665 0.0270263 -2.83768e-21)
(-2.51736 0.0247598 6.80129e-20)
(-2.52702 0.0225492 2.38281e-19)
(-2.53565 0.0203994 5.18283e-20)
(-2.54326 0.0183019 9.71526e-20)
(-2.54983 0.0162579 -2.10451e-19)
(-2.55538 0.0142495 -1.0112e-19)
(-2.55993 0.0122777 6.56944e-20)
(-2.56349 0.0103279 1.33483e-19)
(-2.56611 0.00840073 -7.32715e-20)
(-2.56786 0.00648948 -2.97695e-20)
(-2.56881 0.00460873 -5.12259e-20)
(-2.56907 0.00280011 7.42527e-20)
(-2.5687 0.00113446 -1.02896e-19)
(-2.56729 -0.00041377 -7.72081e-20)
(-2.56482 -0.00191816 -4.96644e-20)
(-2.56128 -0.00338617 1.63807e-19)
(-2.55667 -0.00483746 -1.84391e-20)
(-2.55098 -0.00626831 1.14996e-20)
(-2.54423 -0.00769053 5.97652e-20)
(-2.53641 -0.0090931 1.28438e-19)
(-2.52751 -0.0104834 -1.74991e-20)
(-2.51752 -0.0118503 -4.90451e-20)
(-2.50644 -0.0132009 3.86317e-21)
(-2.49426 -0.0145263 -9.00732e-20)
(-2.48096 -0.0158339 9.73115e-20)
(-2.46656 -0.0171164 3.63159e-20)
(-2.45104 -0.0183805 2.84769e-20)
(-2.43441 -0.0196186 7.03754e-20)
(-2.41667 -0.0208351 8.41022e-20)
(-2.39781 -0.0220224 -4.37088e-20)
(-2.37786 -0.0231834 2.81969e-20)
(-2.35679 -0.0243116 4.04728e-20)
(-2.33462 -0.0254099 4.85219e-20)
(-2.31135 -0.0264748 -5.52458e-21)
(-2.28698 -0.0275128 -2.11828e-21)
(-2.26154 -0.0285199 -3.82745e-20)
(-2.23504 -0.0295027 -3.49242e-20)
(-2.2075 -0.0304526 -3.69017e-20)
(-2.17891 -0.0313746 3.55569e-20)
(-2.14931 -0.0322599 -4.92881e-21)
(-2.11869 -0.033114 -2.01647e-20)
(-2.08708 -0.03393 -4.06024e-21)
(-2.0545 -0.0347136 -2.18827e-20)
(-2.02095 -0.0354604 -2.6819e-20)
(-1.98647 -0.0361755 -1.2624e-20)
(-1.95106 -0.0368544 6.00545e-21)
(-1.91475 -0.0375029 4.09662e-21)
(-1.87755 -0.0381299 3.6743e-21)
(-1.83943 -0.03875 -2.67463e-21)
(-1.80039 -0.0393602 7.41318e-21)
(-1.76043 -0.0399326 -1.35649e-22)
(-1.71965 -0.0404363 6.89199e-21)
(-1.67807 -0.0408889 -7.60825e-21)
(-1.63569 -0.041313 1.22259e-20)
(-1.59253 -0.04172 6.74942e-21)
(-1.5486 -0.0421045 -1.50554e-20)
(-1.50391 -0.0424705 -5.22586e-21)
(-1.45849 -0.0428136 -2.88474e-20)
(-1.41234 -0.0431386 -1.90207e-20)
(-1.36549 -0.0434397 4.34487e-20)
(-1.31795 -0.0437271 7.30757e-20)
(-1.26974 -0.0439893 -1.04266e-19)
(-1.22086 -0.0442354 3.29639e-20)
(-1.17136 -0.0444549 6.69773e-21)
(-1.12123 -0.0446524 -1.93683e-19)
(-1.07051 -0.0448191 4.88616e-21)
(-1.01923 -0.0449568 3.15285e-21)
(-0.967416 -0.0450691 -6.76182e-20)
(-0.915096 -0.0451497 8.76513e-20)
(-0.862305 -0.0452098 1.26332e-19)
(-0.809064 -0.045247 1.34351e-19)
(-0.755397 -0.0452683 1.21931e-19)
(-0.701326 -0.0452737 -1.85173e-19)
(-0.646866 -0.0452703 2.4121e-20)
(-0.592032 -0.0452568 -5.30473e-20)
(-0.536833 -0.0452382 1.46415e-19)
(-0.48128 -0.045211 -4.556e-20)
(-0.425383 -0.0451775 1.89187e-19)
(-0.369156 -0.0451338 -1.93166e-19)
(-0.31261 -0.0450846 -3.07527e-19)
(-0.255757 -0.0450282 -4.81955e-19)
(-0.198609 -0.044967 -2.3358e-19)
(-0.141177 -0.0448975 -1.08557e-19)
(-0.0834782 -0.0448132 5.35689e-20)
(-0.025551 -0.0446905 3.35798e-20)
(0.0325519 -0.0444862 -3.94521e-19)
(0.0907194 -0.0441305 -3.65e-19)
(0.14867 -0.0434964 5.02004e-19)
(0.20635 -0.0423552 6.10948e-19)
(0.2616 -0.0402055 5.70605e-19)
(0.319658 -0.0362373 2.86142e-19)
(0.35606 -0.0242924 -6.13085e-19)
(0.000665587 0.0217495 2.87767e-19)
(0.00097253 0.0376033 2.75791e-18)
(0.00637484 0.0322869 2.84478e-18)
(0.0241248 0.00354008 -1.97271e-18)
(0.0605327 -0.0507499 3.52845e-19)
(0.109732 -0.114291 -1.58499e-19)
(0.161832 -0.167613 -6.34398e-20)
(0.209572 -0.200567 4.74348e-19)
(0.249709 -0.21247 3.66072e-19)
(0.28185 -0.207707 3.00724e-19)
(0.306988 -0.191819 1.34536e-19)
(0.326511 -0.169562 1.27041e-19)
(0.341636 -0.144292 -4.03989e-19)
(0.353258 -0.118056 -2.50421e-19)
(0.361966 -0.0919889 8.99187e-20)
(0.368167 -0.0666492 -1.94826e-19)
(0.372139 -0.0422653 1.90847e-19)
(0.374092 -0.0189198 2.87705e-20)
(0.374229 0.00339949 2.85125e-19)
(0.372894 0.0248139 2.48221e-19)
(0.370343 0.0454838 -2.3471e-19)
(0.366786 0.0654189 -6.3175e-19)
(0.362225 0.0843731 -1.13918e-19)
(0.356359 0.101757 -7.37359e-19)
(0.348586 0.11662 1.66281e-19)
(0.338072 0.127679 2.63085e-19)
(0.323956 0.13349 -1.07603e-19)
(0.30567 0.132748 3.83435e-19)
(0.283395 0.12469 2.16996e-19)
(0.258294 0.109371 5.15226e-19)
(0.232589 0.0876437 -2.81876e-19)
(0.209088 0.0608271 -2.00221e-19)
(0.190616 0.0303351 1.14388e-19)
(0.178581 -0.00251759 -1.53847e-19)
(0.173239 -0.0362129 -2.13978e-19)
(0.1715 -0.0655919 -1.29411e-20)
(0.165489 -0.0799337 -6.01935e-19)
(0.150756 -0.074166 1.92995e-19)
(0.127908 -0.0531179 -4.66956e-19)
(0.097832 -0.0242223 -1.63557e-19)
(0.0605007 0.00815485 1.56372e-19)
(0.0131679 0.0396798 -1.73976e-19)
(-0.0549671 0.0696795 -3.14027e-19)
(-0.147925 0.108978 6.48608e-19)
(-0.260584 0.159072 5.39653e-19)
(-0.389104 0.214075 -2.81539e-19)
(-0.527809 0.269381 1.03784e-19)
(-0.669201 0.320522 -1.0136e-19)
(-0.806951 0.363254 -1.55691e-19)
(-0.937501 0.396635 -6.75534e-20)
(-1.05727 0.419454 -6.60978e-20)
(-1.1648 0.431275 1.16012e-19)
(-1.2591 0.432687 1.86345e-20)
(-1.34003 0.4246 8.14245e-20)
(-1.40901 0.40798 9.02482e-21)
(-1.46814 0.38516 1.0092e-20)
(-1.51979 0.359161 4.23992e-20)
(-1.56555 0.331633 6.49687e-20)
(-1.60711 0.303866 -1.088e-20)
(-1.64594 0.277196 2.07511e-19)
(-1.68293 0.252387 1.49168e-19)
(-1.71869 0.229803 3.44816e-20)
(-1.75351 0.209671 7.68634e-20)
(-1.78752 0.191947 -1.78981e-19)
(-1.8208 0.176444 2.64832e-20)
(-1.85329 0.162903 1.03718e-19)
(-1.88498 0.151044 -1.66588e-19)
(-1.91586 0.140598 -7.55517e-20)
(-1.94589 0.131349 5.07974e-20)
(-1.97505 0.123087 3.9811e-20)
(-2.0033 0.115636 -8.45981e-20)
(-2.03064 0.10884 1.46318e-19)
(-2.05704 0.102586 1.71324e-20)
(-2.08248 0.0967672 5.29579e-20)
(-2.10696 0.0913138 -1.74126e-19)
(-2.13047 0.0861538 1.68902e-19)
(-2.15299 0.081251 3.55603e-20)
(-2.17452 0.0765577 -7.35269e-20)
(-2.19503 0.0720536 -1.3409e-19)
(-2.21452 0.0677058 -6.66601e-20)
(-2.23299 0.0635047 1.07256e-20)
(-2.25044 0.0594285 2.88914e-20)
(-2.26685 0.0554729 -1.37002e-20)
(-2.28224 0.051623 -1.02361e-19)
(-2.29659 0.0478756 -2.80972e-20)
(-2.30992 0.0442199 -3.12094e-20)
(-2.32224 0.0406519 1.87387e-20)
(-2.33354 0.0371642 -6.48405e-20)
(-2.34385 0.0337546 -9.30655e-20)
(-2.35318 0.030426 -1.14683e-19)
(-2.36153 0.0271818 3.70858e-20)
(-2.3689 0.0240213 -1.35559e-19)
(-2.37531 0.0209387 1.31867e-19)
(-2.38074 0.0179308 1.13966e-20)
(-2.38522 0.0149957 -3.11409e-20)
(-2.38876 0.0121343 -5.79687e-20)
(-2.39137 0.00935176 2.00235e-20)
(-2.39307 0.00665406 9.65065e-20)
(-2.39385 0.00405012 7.93949e-20)
(-2.3937 0.00153341 3.5154e-20)
(-2.39258 -0.000931913 4.21268e-20)
(-2.39044 -0.00337135 2.09821e-20)
(-2.38726 -0.00577339 1.93822e-20)
(-2.38305 -0.00814213 -2.67858e-19)
(-2.3778 -0.0104813 5.25762e-20)
(-2.37152 -0.012797 4.75079e-20)
(-2.36421 -0.0150883 -9.2183e-20)
(-2.35585 -0.0173549 7.81994e-20)
(-2.34645 -0.0195929 -2.59611e-20)
(-2.33599 -0.0218009 1.12327e-19)
(-2.32446 -0.0239758 8.15247e-20)
(-2.31186 -0.0261169 5.72305e-20)
(-2.29818 -0.0282226 -3.76162e-20)
(-2.28342 -0.0302927 4.52837e-20)
(-2.26757 -0.0323257 2.90459e-20)
(-2.25063 -0.0343206 -3.49057e-20)
(-2.23261 -0.0362749 -5.21478e-20)
(-2.2135 -0.038186 1.62348e-19)
(-2.19331 -0.0400505 2.40977e-20)
(-2.17204 -0.0418652 -5.50989e-20)
(-2.14968 -0.0436283 -1.37778e-19)
(-2.12625 -0.0453397 -1.73647e-20)
(-2.10175 -0.0470014 -1.1608e-21)
(-2.0762 -0.048615 -4.74527e-20)
(-2.04961 -0.0501806 4.89801e-21)
(-2.02199 -0.0516952 3.68377e-20)
(-1.99335 -0.0531574 -9.99104e-20)
(-1.96372 -0.0545637 3.27194e-20)
(-1.93309 -0.0559139 1.26628e-20)
(-1.90149 -0.0572048 4.77334e-20)
(-1.86893 -0.0584371 -1.26355e-20)
(-1.83543 -0.0596079 2.54758e-20)
(-1.801 -0.0607184 5.93126e-20)
(-1.76566 -0.0617645 5.55646e-21)
(-1.72942 -0.0627452 -1.85228e-20)
(-1.69229 -0.0636578 4.08755e-21)
(-1.65429 -0.064508 2.39557e-21)
(-1.6154 -0.0653088 -2.32851e-21)
(-1.57565 -0.0660818 -5.50392e-23)
(-1.53509 -0.0668116 -7.0283e-22)
(-1.49372 -0.0674864 3.07717e-21)
(-1.45157 -0.0681202 -3.21574e-20)
(-1.40865 -0.0687202 -4.71343e-21)
(-1.36496 -0.0692832 -5.31767e-21)
(-1.32052 -0.0698112 -1.08746e-20)
(-1.27535 -0.0703011 5.21652e-20)
(-1.22947 -0.0707568 -1.55563e-20)