/*--------------------------------*- C++ -*----------------------------------*\
  =========                 |
  \\      /  F ield         | OpenFOAM: The Open Source CFD Toolbox
   \\    /   O peration     | Website:  https://openfoam.org
    \\  /    A nd           | Version:  13
     \\/     M anipulation  |
\*---------------------------------------------------------------------------*/
FoamFile
{
    format      ascii;
    class       volScalarField;
    location    "1400";
    object      k;
}
// * * * * * * * * * * * * * * * * * * * * * * * * * * * * * * * * * * * * * //

dimensions      [0 2 -2 0 0 0 0];

internalField   nonuniform List<scalar> 
12225
(
0.517656
1.19434
1.47919
1.58467
2.41714
2.17379
1.71469
1.82192
1.22948
2.50611
2.92306
2.81006
2.16067
1.91747
1.51757
1.41814
1.37605
1.30819
0.378361
0.349036
0.395941
0.369262
0.446462
0.442297
0.419881
0.486654
0.449524
0.402671
0.474986
0.455955
0.441991
0.471951
0.512575
0.55789
0.613364
0.683808
0.378463
0.319526
0.227441
0.147877
0.0867463
0.0800689
0.0586369
0.0611008
0.0529047
0.0537667
0.0576316
0.0603458
0.0624936
0.0556239
0.0556015
0.0673495
0.0820877
0.111402
0.375741
0.352308
0.301251
0.212159
0.136621
0.0785577
0.0453089
0.035111
0.0268692
0.0226855
0.0213472
0.0198219
0.0170377
0.0167699
0.0172335
0.0238419
0.0326517
0.0427384
0.375545
0.357132
0.322191
0.297715
0.250887
0.207131
0.160487
0.123302
0.0956893
0.0718978
0.0569387
0.046784
0.0383101
0.0355476
0.033479
0.0347277
0.0348131
0.0359959
0.375357
0.361797
0.334973
0.3309
0.314634
0.290741
0.265112
0.243325
0.218711
0.199974
0.183224
0.1742
0.16531
0.15795
0.153819
0.148242
0.145387
0.14106
0.374047
0.368095
0.358488
0.352856
0.344529
0.333267
0.319416
0.307592
0.29589
0.285228
0.273643
0.265908
0.259442
0.25535
0.254001
0.250158
0.247425
0.240323
0.373825
0.370366
0.36512
0.361584
0.356694
0.350846
0.344099
0.337358
0.331543
0.325871
0.321203
0.316247
0.313092
0.308656
0.306152
0.301153
0.298351
0.29259
0.374042
0.371202
0.367997
0.36525
0.362026
0.358367
0.354551
0.350567
0.347131
0.343637
0.340921
0.337699
0.335403
0.332072
0.329725
0.32588
0.323407
0.3193
0.373913
0.37152
0.36907
0.366744
0.3643
0.361676
0.359043
0.356346
0.353937
0.351506
0.349477
0.347213
0.345319
0.342929
0.340955
0.338262
0.336254
0.333435
0.373849
0.371574
0.369367
0.36725
0.365152
0.363027
0.36094
0.35886
0.356941
0.355037
0.353337
0.351555
0.349941
0.348118
0.346489
0.34454
0.342932
0.340942
0.373832
0.37157
0.369415
0.367367
0.365388
0.363456
0.361592
0.35977
0.35806
0.356394
0.354847
0.353296
0.351847
0.35032
0.348907
0.347355
0.345993
0.344448
0.373828
0.371562
0.369415
0.367381
0.365443
0.363585
0.361811
0.360104
0.358489
0.356935
0.355471
0.35404
0.352688
0.351331
0.350055
0.348738
0.347533
0.346262
0.373827
0.371557
0.369407
0.367371
0.36544
0.363602
0.361855
0.360188
0.358607
0.357095
0.355663
0.354284
0.352977
0.351705
0.350498
0.349311
0.348192
0.347083
0.373827
0.371554
0.369401
0.36736
0.365426
0.363588
0.361845
0.360184
0.358609
0.357105
0.355677
0.354312
0.353013
0.35177
0.350584
0.349446
0.348359
0.347315
0.373826
0.371552
0.369395
0.367352
0.365413
0.363575
0.361825
0.360166
0.358584
0.357082
0.355649
0.354286
0.352984
0.351745
0.350561
0.349431
0.348352
0.347321
0.373826
0.37155
0.369392
0.367346
0.365405
0.363562
0.361811
0.360147
0.358564
0.357057
0.355623
0.354256
0.352953
0.351711
0.350526
0.349395
0.348315
0.347285
0.373825
0.371549
0.369391
0.367343
0.3654
0.363554
0.361802
0.360134
0.35855
0.357041
0.355605
0.354236
0.352932
0.351688
0.350502
0.349369
0.348289
0.347257
0.373825
0.37155
0.36939
0.367342
0.365398
0.363552
0.361798
0.36013
0.358545
0.357035
0.355599
0.354229
0.352925
0.351681
0.350494
0.349362
0.34828
0.347248
0.373827
0.371547
0.369395
0.367341
0.365405
0.363553
0.361806
0.360135
0.358554
0.357043
0.355608
0.354239
0.352934
0.35169
0.350501
0.34937
0.348285
0.347252
0.373824
0.371555
0.369393
0.367353
0.365406
0.36357
0.361814
0.360153
0.358562
0.35705
0.355603
0.354224
0.352906
0.351647
0.350442
0.349289
0.348181
0.347123
0.373826
0.371556
0.3694
0.367358
0.365423
0.363592
0.361835
0.36015
0.358509
0.356932
0.355399
0.353935
0.352516
0.351163
0.349844
0.348583
0.347343
0.346167
0.373827
0.371564
0.369399
0.367372
0.365456
0.36363
0.361763
0.359881
0.357926
0.356005
0.354071
0.352244
0.350429
0.348724
0.347004
0.345377
0.343706
0.342145
0.373834
0.371562
0.369401
0.367434
0.365536
0.363482
0.360975
0.358187
0.355056
0.351952
0.348785
0.345916
0.343029
0.340406
0.337663
0.335102
0.332361
0.329841
0.373826
0.371539
0.369459
0.367573
0.365567
0.362408
0.35774
0.352108
0.345564
0.339076
0.332691
0.327191
0.3216
0.316701
0.311352
0.306539
0.301081
0.296321
0.373667
0.371508
0.369727
0.367828
0.365333
0.359591
0.350016
0.336717
0.321946
0.306857
0.293423
0.280853
0.26941
0.259195
0.248557
0.239143
0.227895
0.218885
0.372895
0.371776
0.371108
0.369513
0.366657
0.357203
0.339142
0.311926
0.281889
0.249658
0.219642
0.191122
0.167771
0.147609
0.128959
0.112303
0.0983251
0.0857796
0.370842
0.375687
0.379265
0.380519
0.380328
0.368426
0.344048
0.304962
0.264563
0.228575
0.179788
0.171024
0.170263
0.160762
0.13208
0.116684
0.112888
0.105235
0.372114
0.417516
0.447537
0.467639
0.49372
0.507997
0.522931
0.529865
0.536734
0.547925
0.552163
0.550186
0.549613
0.55483
0.555923
0.57187
0.579472
0.588007
0.658432
1.18783
1.44774
1.56165
1.60569
1.60168
1.58367
1.55137
1.5115
1.47081
1.43066
1.39201
1.35544
1.32155
1.28973
1.26074
1.23325
1.20857
1.44714e-08
3.58667e-07
1.84832e-06
7.35646e-06
2.47979e-05
7.59907e-05
0.00020293
0.000415293
0.000689388
0.000986577
0.0012615
0.00148082
0.00163438
0.00170877
0.00169953
0.00164122
0.00153063
0.00134452
0.00113501
0.000964446
0.000808508
0.000659997
0.000516284
0.000383584
0.000261178
0.000161198
9.02439e-05
4.69624e-05
2.40003e-05
1.27227e-05
7.34495e-06
4.82764e-06
4.00902e-06
6.04284e-06
9.34228e-06
4.59574e-05
0.000105511
0.000319498
0.000660486
0.000956303
0.00101271
0.000929008
0.00075235
0.000669797
0.000703688
0.000864558
0.0010806
0.00179264
0.00322929
0.00797907
0.0250497
0.0632635
0.109339
0.14026
0.153576
0.158758
0.160472
0.169453
0.174076
0.165717
0.156214
0.172249
0.140648
0.162762
0.169182
0.178292
0.187043
0.194743
0.203006
0.210694
0.218375
0.225949
0.233328
0.240701
0.247895
0.25507
0.26211
0.269102
0.275997
0.282819
0.289571
0.296229
0.302837
0.309331
0.315795
0.32213
0.328441
0.334612
0.340746
0.34675
0.352681
0.358522
0.364281
0.369941
0.375502
0.380947
0.386277
0.391466
0.396524
0.40142
0.406179
0.410792
0.41534
0.419734
0.424
0.428133
0.432132
0.435998
0.439715
0.443298
0.446717
0.450001
0.453105
0.456072
0.458847
0.46148
0.463912
0.466194
0.468277
0.470213
0.471949
0.473515
0.474865
0.476037
0.476996
0.477784
0.478366
0.478777
0.478986
0.47902
0.478932
0.478632
0.47828
0.477496
0.476752
0.475806
0.474822
0.47369
0.47233
0.4707
0.468959
0.467044
0.465005
0.462833
0.460541
0.458134
0.45562
0.453005
0.450298
0.447502
0.444626
0.441676
0.438659
0.435576
0.432438
0.429248
0.426022
0.422765
0.419494
0.416213
0.412936
0.409666
0.406413
0.403177
0.399964
0.396773
0.393612
0.390481
0.387389
0.384337
0.381331
0.378363
0.375426
0.372497
0.369523
0.366415
0.363043
0.359088
0.353919
0.338176
7.01119e-08
1.97814e-06
1.34086e-05
5.82202e-05
0.000212672
0.000649598
0.00150891
0.0028052
0.00435244
0.00597526
0.00749085
0.00875713
0.00972529
0.010337
0.0107033
0.0106937
0.0105582
0.0102654
0.00975209
0.00902947
0.0080842
0.006982
0.00572787
0.00448133
0.00317662
0.00215084
0.0013927
0.000875018
0.000538059
0.00032856
0.00020652
0.000139806
0.000107881
0.000115608
9.34378e-05
0.000552705
0.00114113
0.00336337
0.00649194
0.00916808
0.0106306
0.010652
0.0105561
0.0110297
0.0132607
0.0177309
0.0236092
0.035225
0.0560204
0.0820393
0.10828
0.13384
0.154102
0.169264
0.180147
0.190621
0.204967
0.221111
0.237039
0.251749
0.270158
0.287909
0.305509
0.32584
0.344557
0.363137
0.381654
0.399682
0.417633
0.435287
0.452802
0.470168
0.487391
0.504523
0.521541
0.538486
0.555339
0.57212
0.58882
0.605444
0.621993
0.638456
0.654842
0.671131
0.687344
0.703447
0.719465
0.735352
0.75113
0.76675
0.782241
0.797607
0.812846
0.827951
0.842903
0.857694
0.872299
0.886704
0.900878
0.914792
0.928408
0.941672
0.954537
0.967139
0.979542
0.991679
1.00359
1.01522
1.0266
1.03769
1.04849
1.05899
1.06918
1.07903
1.08856
1.09773
1.10653
1.11496
1.12302
1.1307
1.13798
1.14483
1.15124
1.1572
1.16271
1.16777
1.17237
1.17652
1.18021
1.18345
1.18623
1.18856
1.19045
1.19182
1.19285
1.19332
1.19361
1.1937
1.19345
1.19297
1.19203
1.19069
1.18896
1.18685
1.18437
1.18154
1.17836
1.17486
1.17105
1.16693
1.16251
1.15782
1.15287
1.14765
1.14219
1.13649
1.13059
1.12449
1.11824
1.11184
1.10532
1.09869
1.09197
1.08517
1.07829
1.07134
1.06433
1.05726
1.05016
1.04301
1.03585
1.02866
1.02143
1.01412
1.00666
0.998918
0.990668
0.981571
0.969642
0.942967
1.92789e-07
5.82064e-06
4.45273e-05
0.000211717
0.000619735
0.00174082
0.00363123
0.00588979
0.00820268
0.0103376
0.0121514
0.0135771
0.0146045
0.0152457
0.0155949
0.0155958
0.0154806
0.0151877
0.0147149
0.0141088
0.0133713
0.012494
0.0114663
0.0102649
0.00895979
0.00743296
0.00580656
0.00429059
0.00296025
0.00196264
0.00132282
0.000946311
0.000705214
0.0006741
0.000772386
0.00237248
0.00584627
0.0133832
0.0207559
0.0263647
0.0299067
0.0319822
0.0357122
0.0448595
0.0618645
0.0797205
0.0980989
0.11894
0.139505
0.159465
0.180248
0.200475
0.220762
0.241596
0.265423
0.292116
0.319314
0.346632
0.375057
0.40264
0.430497
0.457508
0.484354
0.510618
0.536209
0.561211
0.58579
0.609895
0.633665
0.657131
0.680352
0.703372
0.726217
0.74892
0.771495
0.79396
0.816317
0.838574
0.860732
0.882788
0.904742
0.926587
0.94832
0.969931
0.991421
1.01278
1.03399
1.05506
1.07595
1.09666
1.11717
1.1375
1.15764
1.17759
1.19732
1.21683
1.2361
1.25513
1.27389
1.29239
1.31061
1.32856
1.34623
1.36363
1.38072
1.39749
1.41392
1.43
1.44571
1.46103
1.47595
1.49046
1.50454
1.51816
1.53133
1.544
1.55619
1.56786
1.57902
1.58965
1.59973
1.60923
1.61813
1.62642
1.63411
1.64117
1.64763
1.65346
1.65867
1.66326
1.66723
1.67058
1.67332
1.67545
1.67702
1.6779
1.67833
1.67838
1.67779
1.67667
1.67498
1.67274
1.66997
1.66668
1.66288
1.6586
1.65385
1.64864
1.643
1.63693
1.63047
1.62362
1.61641
1.60884
1.60093
1.5927
1.58418
1.57539
1.56637
1.55713
1.54771
1.53813
1.52841
1.51856
1.5086
1.49853
1.48835
1.47809
1.46776
1.45738
1.44695
1.4365
1.426
1.41546
1.4048
1.39394
1.38267
1.37074
1.35616
1.33116
6.85742e-07
2.05918e-05
0.000161183
0.000697451
0.00195559
0.00471217
0.00811375
0.0115049
0.0145113
0.0169393
0.0187358
0.0199336
0.020608
0.0208459
0.020777
0.0205283
0.0200537
0.0194581
0.0187738
0.0180185
0.0171971
0.016304
0.01533
0.0142475
0.0130479
0.0116977
0.0101997
0.00860872
0.00705228
0.00555268
0.00426105
0.0032662
0.00261187
0.00289818
0.00497146
0.012145
0.0257428
0.0385509
0.0488923
0.0573391
0.0662759
0.0778459
0.0924835
0.108553
0.123922
0.139808
0.156968
0.177031
0.197992
0.221358
0.246431
0.273247
0.3018
0.332009
0.363738
0.396333
0.429169
0.462015
0.494758
0.526974
0.558799
0.589981
0.620677
0.650745
0.68028
0.709298
0.737908
0.766154
0.794102
0.821806
0.84931
0.876653
0.903861
0.930959
0.957959
0.984872
1.0117
1.03845
1.0651
1.09167
1.11813
1.14449
1.17072
1.19682
1.22278
1.24859
1.27423
1.29969
1.32496
1.35
1.37481
1.39938
1.42373
1.44783
1.47168
1.49525
1.51855
1.54157
1.56429
1.58671
1.60882
1.63061
1.65207
1.67317
1.69388
1.7142
1.7341
1.75356
1.77257
1.79109
1.80912
1.82664
1.84362
1.86005
1.8759
1.89116
1.90581
1.91983
1.93321
1.94593
1.95798
1.96932
1.97994
1.98981
1.99895
2.00733
2.01496
2.02183
2.02795
2.03331
2.03791
2.04176
2.04485
2.04722
2.04884
2.04966
2.04994
2.04959
2.04849
2.0467
2.04425
2.04113
2.03738
2.033
2.02801
2.02244
2.0163
2.00961
2.00239
1.99467
1.98646
1.9778
1.96868
1.95915
1.94921
1.93888
1.9282
1.9172
1.9059
1.89434
1.88254
1.87055
1.85837
1.84603
1.83354
1.82092
1.80816
1.7953
1.78234
1.76931
1.75624
1.74313
1.73001
1.71686
1.70367
1.69039
1.67688
1.66294
1.64689
1.62357
2.30509e-06
6.9149e-05
0.000520922
0.00197454
0.00553265
0.0106062
0.0154691
0.0194627
0.0223794
0.0242737
0.0253223
0.0257282
0.0256645
0.0253632
0.0247687
0.0240415
0.0232357
0.0223875
0.0215225
0.0206498
0.0197697
0.0188729
0.0179481
0.0169708
0.0159212
0.014762
0.0134642
0.0120448
0.0105981
0.00919497
0.00773179
0.00672947
0.00753959
0.0123637
0.0255463
0.0444811
0.0624019
0.0775411
0.0900636
0.101364
0.112683
0.124599
0.137259
0.150712
0.166081
0.184644
0.205902
0.230047
0.256535
0.285297
0.315731
0.347679
0.380809
0.414871
0.449575
0.484621
0.519769
0.554847
0.589744
0.62434
0.658595
0.692446
0.725909
0.758959
0.791631
0.82396
0.856
0.887794
0.919387
0.950821
0.98213
1.01334
1.04449
1.07557
1.1066
1.1376
1.16854
1.19943
1.23026
1.26102
1.29169
1.32226
1.35271
1.38303
1.4132
1.4432
1.47302
1.50263
1.53202
1.56116
1.59003
1.61864
1.64697
1.67502
1.70277
1.73021
1.75732
1.78411
1.81054
1.83662
1.86233
1.88764
1.91254
1.937
1.96101
1.98455
2.00758
2.03009
2.05206
2.07346
2.09428
2.11449
2.13406
2.15299
2.17123
2.18878
2.2056
2.22169
2.23703
2.25159
2.26535
2.27829
2.29038
2.30162
2.31199
2.32148
2.3301
2.33783
2.34468
2.35064
2.35572
2.35991
2.36324
2.36571
2.36725
2.36792
2.36797
2.36718
2.36554
2.36311
2.3599
2.35594
2.35124
2.34582
2.3397
2.33291
2.32546
2.31738
2.3087
2.29943
2.2896
2.27925
2.26838
2.25703
2.24522
2.23297
2.22031
2.20727
2.19389
2.1802
2.16624
2.15204
2.13762
2.12301
2.10822
2.09327
2.07816
2.06292
2.04758
2.03214
2.01666
2.00115
1.98563
1.97014
1.95466
1.9392
1.92366
1.90792
1.89057
1.86779
7.2332e-06
0.000212479
0.00152493
0.00543712
0.0127582
0.0194603
0.0243936
0.0275382
0.0292665
0.0300035
0.0300398
0.0297367
0.0290539
0.0281609
0.0271632
0.0261219
0.0250823
0.0240703
0.0231016
0.0221769
0.0212907
0.0204283
0.0195729
0.018695
0.0177731
0.0167571
0.0155921
0.0142297
0.0126758
0.0114946
0.0117913
0.014787
0.0243294
0.0430266
0.0657875
0.0869101
0.104152
0.117057
0.126926
0.135733
0.145091
0.155794
0.169398
0.186214
0.206226
0.229669
0.255968
0.284688
0.315222
0.347204
0.380301
0.414328
0.449066
0.484373
0.520106
0.556143
0.592374
0.628702
0.665042
0.701323
0.737478
0.773478
0.8093
0.844929
0.880372
0.91565
0.950787
0.985814
1.02076
1.05565
1.09052
1.12538
1.16024
1.19513
1.23003
1.26494
1.29986
1.33478
1.36967
1.40452
1.43931
1.47401
1.5086
1.54307
1.57738
1.61152
1.64546
1.67917
1.71265
1.74584
1.77873
1.81132
1.8436
1.87555
1.90715
1.93839
1.96925
1.99973
2.0298
2.05945
2.08865
2.11738
2.14563
2.17337
2.20057
2.22721
2.25328
2.27875
2.30359
2.32778
2.3513
2.37411
2.3962
2.41754
2.4381
2.45786
2.47679
2.49488
2.5121
2.52843
2.54385
2.55832
2.57183
2.58437
2.59591
2.60646
2.61601
2.62454
2.63206
2.63858
2.64408
2.64858
2.65208
2.65459
2.65603
2.65656
2.65628
2.65503
2.65284
2.64975
2.64579
2.64097
2.63531
2.62885
2.6216
2.61359
2.60485
2.59539
2.58526
2.57447
2.56305
2.55103
2.53845
2.52533
2.51169
2.49756
2.48297
2.46795
2.45255
2.43681
2.42076
2.40442
2.38784
2.37104
2.35403
2.33683
2.31946
2.30194
2.28429
2.26655
2.24875
2.23092
2.21312
2.19536
2.17768
2.1601
2.14258
2.12502
2.10623
2.0831
2.28341e-05
0.000632897
0.00416409
0.0131228
0.0222956
0.0283863
0.0318405
0.0335461
0.0341337
0.0340097
0.0334361
0.0324482
0.0312577
0.029964
0.0286461
0.0273609
0.0261469
0.0250226
0.0239943
0.0230533
0.0221863
0.0213701
0.020577
0.0197612
0.0188957
0.0180521
0.0172973
0.01682
0.0171448
0.0196448
0.0268811
0.0415262
0.0631069
0.0861379
0.107247
0.123833
0.135374
0.143492
0.150587
0.158525
0.169544
0.183975
0.201997
0.223591
0.24838
0.275915
0.305473
0.336534
0.368708
0.401775
0.435592
0.47007
0.505135
0.540741
0.576834
0.613367
0.650278
0.687503
0.724965
0.762608
0.800375
0.838225
0.876125
0.914055
0.952002
0.989972
1.02797
1.06602
1.10412
1.1423
1.18058
1.21896
1.25745
1.29605
1.33475
1.37355
1.41241
1.45134
1.49028
1.52923
1.56815
1.607
1.64576
1.6844
1.72289
1.7612
1.79931
1.83718
1.87477
1.91206
1.94901
1.98562
2.02188
2.05776
2.09324
2.12831
2.16294
2.19712
2.23083
2.26405
2.29676
2.32892
2.36051
2.39152
2.42192
2.45168
2.48079
2.50921
2.53693
2.56391
2.59012
2.61554
2.64015
2.6639
2.68677
2.70874
2.72979
2.74987
2.76898
2.78708
2.80414
2.82014
2.83506
2.84888
2.8616
2.87318
2.88364
2.89295
2.90113
2.90816
2.91406
2.91883
2.92247
2.92499
2.9263
2.92665
2.926
2.92427
2.9215
2.91772
2.91296
2.90725
2.90061
2.89307
2.88466
2.8754
2.86533
2.85447
2.84286
2.83052
2.81749
2.8038
2.78948
2.77456
2.75908
2.74306
2.72653
2.70954
2.69213
2.67433
2.65619
2.63774
2.61901
2.60003
2.58083
2.56142
2.5418
2.52202
2.5021
2.48208
2.46199
2.44189
2.42182
2.40182
2.38194
2.36223
2.34267
2.32321
2.30277
2.27866
6.82141e-05
0.00174502
0.00991697
0.0227958
0.0310087
0.0354408
0.0375878
0.0383164
0.0381422
0.0373701
0.0361053
0.0345876
0.0329487
0.0312927
0.0296983
0.0282178
0.0268813
0.0256963
0.0246571
0.0237456
0.0229426
0.0222181
0.021534
0.0208431
0.0202459
0.0199374
0.0205011
0.023045
0.029273
0.0417861
0.0601932
0.0813348
0.102417
0.121227
0.135949
0.146087
0.153186
0.159766
0.1683
0.179979
0.195357
0.214415
0.236878
0.262301
0.290068
0.31957
0.350269
0.381869
0.414208
0.447226
0.48089
0.515193
0.550133
0.585716
0.621929
0.658754
0.696143
0.734055
0.772434
0.811229
0.850387
0.889867
0.929628
0.969644
1.00989
1.05037
1.09106
1.13197
1.17311
1.21448
1.25609
1.29793
1.34001
1.38231
1.42481
1.4675
1.51035
1.55332
1.59638
1.63949
1.6826
1.72568
1.76869
1.81158
1.85433
1.89689
1.93924
1.98134
2.02314
2.0646
2.10569
2.14639
2.18669
2.22657
2.26599
2.30494
2.34339
2.38133
2.41872
2.45555
2.4918
2.52742
2.5624
2.59672
2.63034
2.66325
2.69542
2.72682
2.75743
2.78722
2.81615
2.8442
2.87133
2.89751
2.92271
2.94691
2.97007
2.99216
3.01315
3.03302
3.05173
3.06926
3.08558
3.10067
3.11453
3.12713
3.13848
3.14855
3.15734
3.16487
3.17113
3.17612
3.17987
3.18234
3.1835
3.18361
3.18254
3.18028
3.17688
3.17236
3.16675
3.1601
3.15242
3.14375
3.13412
3.12356
3.1121
3.09979
3.08665
3.07271
3.05802
3.04261
3.02651
3.00976
2.9924
2.97445
2.95596
2.93697
2.91752
2.89766
2.87742
2.85685
2.83597
2.81481
2.79341
2.77178
2.74993
2.7279
2.70571
2.68341
2.66105
2.63867
2.61634
2.59409
2.572
2.55012
2.52846
2.50698
2.48469
2.45916
0.000178377
0.00417572
0.0187862
0.0315257
0.0382329
0.0414581
0.0426911
0.0426619
0.0418463
0.0403852
0.0385674
0.0365669
0.0345266
0.0325594
0.030747
0.02914
0.0277648
0.0266259
0.0257165
0.0250221
0.0245381
0.024304
0.0244039
0.0250507
0.026542
0.0294144
0.0347559
0.0445283
0.058874
0.0760529
0.0946232
0.112733
0.12867
0.141311
0.1507
0.158102
0.165615
0.175117
0.187786
0.204004
0.223684
0.246441
0.271769
0.299109
0.327908
0.357731
0.38831
0.419537
0.451389
0.483887
0.517059
0.550949
0.585588
0.621005
0.657203
0.694178
0.731908
0.770365
0.809507
0.849293
0.889677
0.930619
0.972079
1.01403
1.05644
1.09928
1.14256
1.18626
1.23037
1.27488
1.3198
1.3651
1.41079
1.45682
1.50318
1.54983
1.59673
1.64384
1.6911
1.73846
1.78587
1.83327
1.88061
1.92785
1.97495
2.02186
2.06854
2.11495
2.16103
2.20675
2.25205
2.29692
2.34134
2.38527
2.42869
2.47157
2.51389
2.55561
2.59673
2.63721
2.67703
2.71614
2.75453
2.79217
2.82903
2.86509
2.90033
2.93471
2.96822
3.00081
3.03245
3.06312
3.09277
3.12137
3.14888
3.17529
3.20055
3.22463
3.24748
3.2691
3.28942
3.30844
3.32613
3.34246
3.35742
3.371
3.38317
3.39394
3.40331
3.41126
3.41781
3.42297
3.42675
3.42911
3.43009
3.42985
3.42829
3.42544
3.42132
3.41599
3.40947
3.40179
3.393
3.38312
3.3722
3.36027
3.34737
3.33354
3.31881
3.30322
3.28681
3.26963
3.2517
3.23308
3.21379
3.19387
3.17338
3.15235
3.13084
3.10889
3.08655
3.06384
3.0408
3.01747
2.99387
2.97001
2.94593
2.92165
2.8972
2.87264
2.84801
2.82336
2.79876
2.77426
2.74994
2.72585
2.70202
2.67844
2.65417
2.62685
0.000400366
0.00854471
0.0278975
0.0393771
0.0448331
0.0471816
0.0476993
0.0470421
0.0455568
0.0435371
0.0412152
0.0387879
0.0364185
0.0342341
0.0323223
0.030734
0.029498
0.0286055
0.0280664
0.0278657
0.0280268
0.028745
0.0303778
0.0336002
0.0391428
0.0476157
0.0591355
0.0728128
0.0879236
0.103542
0.11852
0.131805
0.142917
0.152086
0.160294
0.169051
0.179797
0.193448
0.2103
0.23019
0.252741
0.277476
0.303918
0.33162
0.360228
0.389515
0.419386
0.449844
0.480931
0.512713
0.545255
0.578624
0.612866
0.64802
0.684108
0.721141
0.759113
0.798013
0.837811
0.87848
0.919982
0.962283
1.00535
1.04914
1.09364
1.13881
1.18464
1.2311
1.27819
1.32587
1.37414
1.42296
1.47232
1.52218
1.57249
1.6232
1.67426
1.72561
1.77718
1.8289
1.88071
1.93253
1.98431
2.03598
2.08751
2.13884
2.18993
2.24071
2.29115
2.34117
2.39074
2.43981
2.48838
2.5364
2.58384
2.63068
2.67687
2.7224
2.76724
2.81136
2.85473
2.89732
2.9391
2.98003
3.0201
3.05928
3.09755
3.13487
3.17123
3.20657
3.24088
3.27411
3.30622
3.33717
3.36694
3.39549
3.42278
3.44878
3.47344
3.49672
3.51859
3.53903
3.558
3.57548
3.59146
3.60592
3.61884
3.63022
3.64006
3.64835
3.6551
3.66032
3.66403
3.66619
3.66689
3.66619
3.66405
3.66051
3.6556
3.64935
3.64182
3.63303
3.62304
3.61187
3.59957
3.58619
3.57176
3.55633
3.53994
3.52263
3.50445
3.48543
3.46562
3.44507
3.4238
3.40188
3.37934
3.35625
3.33265
3.3086
3.28414
3.25929
3.23409
3.20858
3.18277
3.1567
3.13038
3.10386
3.07717
3.05036
3.02347
2.99657
2.96971
2.94295
2.91638
2.89005
2.86401
2.83827
2.81194
2.78292
0.000772799
0.0150063
0.0360631
0.0464544
0.05115
0.052909
0.0528964
0.0516922
0.0496898
0.0472
0.0444855
0.0417727
0.0392481
0.0370556
0.0352955
0.0340166
0.0333118
0.0331328
0.0335101
0.0346193
0.0367233
0.0401381
0.0451863
0.0520769
0.0608942
0.071494
0.0835069
0.0963024
0.109194
0.121516
0.132802
0.142904
0.152113
0.161192
0.171213
0.183148
0.197622
0.214805
0.234553
0.256514
0.280304
0.305531
0.331861
0.359013
0.386805
0.415153
0.444056
0.473571
0.503775
0.53476
0.566608
0.599397
0.633185
0.668025
0.703952
0.740996
0.779164
0.818461
0.858874
0.900388
0.94298
0.986621
1.03128
1.07693
1.12354
1.17108
1.21951
1.26882
1.31897
1.36993
1.42166
1.47414
1.52732
1.58113
1.63552
1.69042
1.74577
1.80148
1.85748
1.91368
1.96998
2.02632
2.0826
2.13878
2.1948
2.2506
2.30612
2.36131
2.41611
2.47044
2.52425
2.57751
2.6302
2.68228
2.7337
2.78444
2.83445
2.88372
2.93221
2.9799
3.02674
3.07272
3.11779
3.16192
3.20509
3.24728
3.28846
3.3286
3.36768
3.40566
3.4425
3.47816
3.5126
3.54577
3.57766
3.60822
3.63741
3.66518
3.6915
3.71631
3.73959
3.76129
3.78141
3.7999
3.81675
3.83194
3.84547
3.85731
3.86747
3.87595
3.88275
3.88789
3.89139
3.89324
3.89352
3.89224
3.8894
3.88504
3.8792
3.87194
3.86328
3.85328
3.84198
3.82942
3.81565
3.80072
3.78468
3.76758
3.74946
3.73037
3.71035
3.68945
3.66771
3.64518
3.6219
3.59792
3.57332
3.54815
3.52246
3.4963
3.46971
3.44273
3.41539
3.38771
3.35972
3.33145
3.30293
3.27419
3.24528
3.21625
3.18715
3.15802
3.12893
3.09993
3.07112
3.04255
3.01428
2.98634
2.95791
2.92711
0.00126104
0.0220069
0.0436547
0.0535076
0.0577129
0.0590011
0.0585677
0.0569363
0.0545424
0.0517474
0.0488575
0.0461303
0.0437722
0.0419512
0.0408442
0.0404716
0.0407805
0.0418858
0.0439065
0.0469843
0.0512596
0.0568415
0.0637626
0.0719574
0.0812697
0.0914231
0.102034
0.112697
0.123094
0.133058
0.142625
0.152082
0.162018
0.17312
0.185999
0.201001
0.218226
0.237516
0.258614
0.281203
0.305004
0.329758
0.355274
0.381407
0.40809
0.43532
0.463146
0.491654
0.520941
0.551111
0.582254
0.614459
0.647797
0.682336
0.718124
0.755205
0.793606
0.833345
0.874429
0.91686
0.960625
1.00571
1.05208
1.09972
1.14859
1.19865
1.24987
1.3022
1.35561
1.41004
1.46546
1.5218
1.57901
1.63699
1.69566
1.75493
1.81472
1.87493
1.93548
1.99624
2.05712
2.11802
2.17885
2.23956
2.30007
2.36032
2.42025
2.47979
2.53887
2.59741
2.65536
2.71269
2.76937
2.82536
2.88062
2.9351
2.98877
3.0416
3.09356
3.14462
3.19475
3.24391
3.29206
3.33918
3.38524
3.43021
3.47408
3.51681
3.55838
3.59876
3.6379
3.67575
3.71228
3.74745
3.78122
3.81355
3.8444
3.87372
3.90146
3.92757
3.95202
3.97478
3.9958
4.01508
4.03258
4.0483
4.06221
4.0743
4.08458
4.09304
4.0997
4.10457
4.10768
4.10903
4.1087
4.10669
4.10298
4.09765
4.09076
4.08233
4.07242
4.06108
4.04836
4.0343
4.01897
4.0024
3.98466
3.96581
3.94589
3.92495
3.90305
3.88023
3.85653
3.83199
3.80667
3.78064
3.75396
3.72671
3.69894
3.67069
3.64202
3.61294
3.58349
3.55369
3.52356
3.49313
3.46245
3.43155
3.40049
3.36931
3.33805
3.30675
3.27549
3.2443
3.21328
3.1825
3.15202
3.1219
3.09137
3.05874
0.00187532
0.0284767
0.0507358
0.0605003
0.0644976
0.0655391
0.0648076
0.0628661
0.0602303
0.057348
0.05458
0.0522035
0.0504076
0.0494752
0.0492843
0.0499576
0.0514882
0.0539461
0.057358
0.0617615
0.0671694
0.0735498
0.0807926
0.0887621
0.0972892
0.106186
0.115277
0.124451
0.133688
0.143092
0.152938
0.163607
0.175527
0.189004
0.204232
0.221205
0.239814
0.259841
0.281082
0.303315
0.32638
0.350132
0.374488
0.399397
0.424863
0.450932
0.477681
0.505213
0.53363
0.563045
0.593557
0.625268
0.658261
0.69262
0.72841
0.765689
0.804494
0.844867
0.88683
0.9304
0.975578
1.02236
1.07072
1.12064
1.17208
1.225
1.27935
1.33507
1.3921
1.45037
1.50983
1.57038
1.63192
1.69435
1.75755
1.82139
1.88576
1.95057
2.01572
2.08107
2.14651
2.21193
2.27726
2.34241
2.40732
2.47192
2.53613
2.59986
2.66302
2.72555
2.78739
2.84851
2.9089
2.96852
3.02732
3.08523
3.14224
3.1983
3.2534
3.30749
3.36055
3.41253
3.46341
3.51314
3.56171
3.6091
3.65527
3.70022
3.74391
3.78631
3.82737
3.86705
3.9053
3.9421
3.97738
4.01113
4.04329
4.0738
4.10261
4.12968
4.15497
4.17844
4.20005
4.21979
4.23763
4.25356
4.26756
4.27962
4.28973
4.29791
4.30416
4.30851
4.31098
4.31161
4.31048
4.30749
4.30273
4.29626
4.28813
4.27839
4.26708
4.25427
4.24
4.22433
4.20733
4.18903
4.16952
4.14884
4.12706
4.10423
4.08041
4.05565
4.02999
4.00343
3.97607
3.94799
3.91927
3.88998
3.86017
3.82989
3.79918
3.76807
3.73658
3.70474
3.67254
3.64004
3.60729
3.57433
3.54122
3.50798
3.47467
3.44131
3.40795
3.37466
3.34151
3.30859
3.27596
3.24372
3.21113
3.17675
0.00264269
0.0340617
0.057785
0.0677386
0.0716137
0.0724684
0.0714817
0.0693114
0.06655
0.0637561
0.0613819
0.0596749
0.0588577
0.0587315
0.0595038
0.0611379
0.0636199
0.0669341
0.0710562
0.0759692
0.0816081
0.0879043
0.0947621
0.102113
0.109883
0.118032
0.126549
0.135487
0.144977
0.155215
0.166432
0.178832
0.192579
0.207714
0.224221
0.241973
0.260847
0.28067
0.301319
0.322669
0.344649
0.367199
0.390311
0.413997
0.43831
0.463323
0.489136
0.51586
0.543602
0.572477
0.602589
0.634051
0.666961
0.701421
0.737511
0.77531
0.814881
0.856285
0.899563
0.944748
0.991854
1.04088
1.09181
1.14461
1.19923
1.25562
1.31371
1.37342
1.43466
1.49733
1.5613
1.62647
1.69271
1.75987
1.82779
1.89632
1.96533
2.0347
2.10433
2.17411
2.24392
2.31368
2.38328
2.45265
2.52173
2.59042
2.65863
2.72623
2.79312
2.8592
2.92449
2.98896
3.05261
3.11537
3.1772
3.23803
3.29784
3.35659
3.41427
3.47083
3.52624
3.58048
3.6335
3.68527
3.73578
3.785
3.83292
3.87951
3.92475
3.96861
4.01103
4.05198
4.09141
4.1293
4.16558
4.20023
4.23318
4.26438
4.29378
4.32133
4.34698
4.37071
4.39247
4.41224
4.43001
4.44575
4.45944
4.47109
4.48068
4.48822
4.49374
4.49725
4.49879
4.49845
4.49622
4.492
4.48596
4.47814
4.46859
4.45735
4.44449
4.43006
4.41411
4.39672
4.37794
4.35784
4.33648
4.31392
4.29023
4.26548
4.23972
4.21302
4.18542
4.15688
4.12752
4.09746
4.06677
4.03551
4.00374
3.97151
3.93886
3.90582
3.87241
3.83864
3.80449
3.77005
3.73536
3.70049
3.66547
3.63032
3.5951
3.55982
3.52451
3.48924
3.45409
3.41915
3.38449
3.35023
3.31569
3.2797
0.00349003
0.0400617
0.0648169
0.0749891
0.0788108
0.0795287
0.0782272
0.0757214
0.0729289
0.070499
0.0688087
0.0680406
0.0679341
0.0686064
0.070089
0.0723707
0.0753889
0.0791061
0.0834724
0.0884621
0.0940203
0.100131
0.10676
0.113914
0.121592
0.129845
0.138742
0.14839
0.158912
0.170422
0.183012
0.196718
0.211554
0.227444
0.244318
0.262054
0.280565
0.299745
0.319546
0.339912
0.36084
0.382332
0.404422
0.427162
0.450629
0.47493
0.500172
0.526476
0.553929
0.582663
0.612802
0.644481
0.677822
0.712945
0.749966
0.788979
0.830083
0.873342
0.918831
0.966578
1.01661
1.06891
1.12345
1.18015
1.23895
1.29977
1.3625
1.42703
1.49321
1.56087
1.62985
1.69997
1.77109
1.84303
1.91563
1.98872
2.06214
2.13568
2.20933
2.28303
2.35675
2.43037
2.50377
2.5769
2.64966
2.72193
2.79357
2.86448
2.93448
3.0036
3.07181
3.13907
3.20537
3.27064
3.33482
3.39787
3.45973
3.52041
3.57986
3.63808
3.69503
3.75069
3.80501
3.85798
3.90958
3.9598
4.00862
4.05602
4.10199
4.14649
4.18948
4.23092
4.27078
4.309
4.34555
4.38037
4.41342
4.44463
4.47397
4.50135
4.52676
4.55015
4.57149
4.59074
4.60789
4.62293
4.63583
4.64659
4.65521
4.66168
4.66606
4.66835
4.66861
4.66701
4.66326
4.65754
4.64995
4.64051
4.6293
4.61636
4.60174
4.58552
4.56775
4.5485
4.52783
4.50581
4.48251
4.458
4.43234
4.40562
4.3779
4.34923
4.31969
4.28924
4.25801
4.22609
4.19355
4.16045
4.12685
4.0928
4.05834
4.02352
3.98835
3.95282
3.9169
3.88069
3.84428
3.80768
3.77094
3.73408
3.69713
3.66013
3.62306
3.58599
3.54902
3.51225
3.47574
3.43963
3.40327
3.36589
0.00437977
0.0459681
0.0718451
0.082243
0.0859933
0.086523
0.0848347
0.0821638
0.079621
0.0777842
0.0769154
0.0767284
0.0772548
0.0784682
0.0804426
0.0831203
0.0864393
0.0903731
0.0948807
0.0999753
0.105632
0.111888
0.118738
0.126254
0.13446
0.143449
0.153265
0.163991
0.175661
0.188286
0.201872
0.216381
0.231767
0.247928
0.264817
0.282323
0.30044
0.319089
0.338299
0.358039
0.378365
0.399283
0.42088
0.443226
0.466446
0.49068
0.516082
0.542707
0.570592
0.599958
0.630956
0.663776
0.69855
0.735469
0.774638
0.816218
0.860285
0.906948
0.956226
1.00817
1.06276
1.11995
1.1796
1.24159
1.3058
1.3721
1.44033
1.51036
1.582
1.65505
1.72924
1.80423
1.87994
1.95628
2.03314
2.11034
2.18766
2.26488
2.34209
2.41924
2.49629
2.57305
2.64952
2.72569
2.8014
2.87644
2.9507
3.02404
3.09649
3.16796
3.23834
3.3076
3.37568
3.44251
3.50804
3.57221
3.63501
3.69642
3.75647
3.81512
3.87238
3.9282
3.98258
4.0355
4.08694
4.13691
4.1854
4.23241
4.27792
4.3219
4.36432
4.40514
4.44433
4.48183
4.51761
4.55162
4.5838
4.6141
4.64246
4.66883
4.69316
4.71541
4.73555
4.75355
4.76939
4.78306
4.79453
4.80381
4.81087
4.81575
4.81847
4.81907
4.81775
4.81425
4.80866
4.8011
4.79163
4.7803
4.76717
4.7523
4.73574
4.71755
4.69782
4.67659
4.65394
4.62994
4.60467
4.57818
4.55056
4.52188
4.49221
4.46162
4.43017
4.39795
4.365
4.33138
4.29714
4.26236
4.22708
4.19136
4.15525
4.1188
4.08203
4.04492