/*--------------------------------*- C++ -*----------------------------------*\
  =========                 |
  \\      /  F ield         | OpenFOAM: The Open Source CFD Toolbox
   \\    /   O peration     | Website:  https://openfoam.org
    \\  /    A nd           | Version:  13
     \\/     M anipulation  |
\*---------------------------------------------------------------------------*/
FoamFile
{
    format      ascii;
    class       volScalarField;
    location    "1400";
    object      nut;
}
// * * * * * * * * * * * * * * * * * * * * * * * * * * * * * * * * * * * * * //

dimensions      [0 2 -1 0 0 0 0];

internalField   nonuniform List<scalar> 
12225
(
5.14744e-06
1.20975e-05
1.52866e-05
1.67328e-05
2.60533e-05
2.39399e-05
1.92951e-05
2.08922e-05
1.43385e-05
2.96803e-05
3.5102e-05
3.416e-05
2.65617e-05
2.38314e-05
1.90401e-05
1.79301e-05
1.75081e-05
1.67451e-05
0.000246272
2.80338e-05
2.85294e-05
2.54745e-05
2.63079e-05
2.57535e-05
1.98351e-05
2.32294e-05
2.22772e-05
2.06151e-05
2.54981e-05
2.44466e-05
2.31181e-05
2.34934e-05
2.5761e-05
2.65377e-05
3.0423e-05
3.23136e-05
0.00041391
1.48594e-05
1.83179e-05
1.63569e-05
9.83137e-06
9.34525e-06
6.98236e-06
7.35165e-06
6.12813e-06
6.39328e-06
7.01742e-06
7.50947e-06
7.75815e-06
6.93177e-06
5.9669e-06
7.31817e-06
8.52205e-06
1.08382e-05
0.000647357
7.49973e-05
9.97386e-05
9.52086e-05
5.05755e-05
2.18594e-05
1.1253e-05
7.51059e-06
5.60309e-06
4.61648e-06
4.26994e-06
3.15274e-06
2.60988e-06
2.60409e-06
2.0872e-06
3.00996e-06
3.81537e-06
5.00119e-06
0.00070562
0.00019874
0.000160665
0.000230401
0.000202716
0.000136748
0.000100093
7.24935e-05
2.86754e-05
1.75923e-05
1.38969e-05
8.25736e-06
4.74772e-06
4.58301e-06
4.01589e-06
4.0783e-06
4.33252e-06
4.84467e-06
0.00252563
0.000315397
0.000218512
0.000230364
0.000232508
0.000222381
0.000188271
0.000145773
0.000111175
0.000100957
8.50506e-05
7.72626e-05
6.91665e-05
6.55884e-05
5.88585e-05
5.4963e-05
4.76167e-05
4.53058e-05
0.00108375
0.000633883
0.000516419
0.000431097
0.000365577
0.000331529
0.000315107
0.000283854
0.000237957
0.000214613
0.00020425
0.000188755
0.000178423
0.000174537
0.00016925
0.000154393
0.000137231
0.00012607
0.000936752
0.000709387
0.000619334
0.00058452
0.000541102
0.000484638
0.000434796
0.00039491
0.000361531
0.000344939
0.000339928
0.000327136
0.000311929
0.000304356
0.000299369
0.000289599
0.000283356
0.000272252
0.000878542
0.000810355
0.000751703
0.000723968
0.000701241
0.000658184
0.000614559
0.000574738
0.000542967
0.000518146
0.000502047
0.000485945
0.000472763
0.00046323
0.000457469
0.000450015
0.000445534
0.000436214
0.000854913
0.000845085
0.000825314
0.000810859
0.000797291
0.000774202
0.000748475
0.000720327
0.000697696
0.000677667
0.000661764
0.000646991
0.000635123
0.000625799
0.00061757
0.000611067
0.000602117
0.000597093
0.000852564
0.000850303
0.000845646
0.000840322
0.000835278
0.00082715
0.000816176
0.000803119
0.000791337
0.000779207
0.000769992
0.00075853
0.000749519
0.000743442
0.000734536
0.00072888
0.000725323
0.000719483
0.000851621
0.000850714
0.000849108
0.000847969
0.000845276
0.000843105
0.000839046
0.000833742
0.000828508
0.000823268
0.00081738
0.000812665
0.000806861
0.000802573
0.000798265
0.000794104
0.000790477
0.000787108
0.000851506
0.000850717
0.000849708
0.000849104
0.000847913
0.000846854
0.000845413
0.000843715
0.000841856
0.000839947
0.000838004
0.000836077
0.000834295
0.00083256
0.000831195
0.000829155
0.000827781
0.00082532
0.000851522
0.000850691
0.000849829
0.000849112
0.000848332
0.000847573
0.000846784
0.000845976
0.000845203
0.000844341
0.000843635
0.000842791
0.000842136
0.000841324
0.000840777
0.000839922
0.000839273
0.000838276
0.000851536
0.000850677
0.000849856
0.000849083
0.000848349
0.000847637
0.000846965
0.000846298
0.00084569
0.000845065
0.000844515
0.000843938
0.000843437
0.000842902
0.000842443
0.000841941
0.000841482
0.000840984
0.000851538
0.000850674
0.000849855
0.000849075
0.000848337
0.00084763
0.000846961
0.000846318
0.000845711
0.000845123
0.000844571
0.000844033
0.000843529
0.000843037
0.000842575
0.000842123
0.000841695
0.000841276
0.000851538
0.000850673
0.000849852
0.00084907
0.000848328
0.000847621
0.000846948
0.000846306
0.000845694
0.000845109
0.000844552
0.000844017
0.000843507
0.000843018
0.000842551
0.000842103
0.000841674
0.000841263
0.000851539
0.000850678
0.000849857
0.000849077
0.000848335
0.000847627
0.000846954
0.000846311
0.000845699
0.000845113
0.000844554
0.000844019
0.000843508
0.000843018
0.000842549
0.000842101
0.00084167
0.00084126
0.000851537
0.000850674
0.000849851
0.000849068
0.000848323
0.000847614
0.000846938
0.000846295
0.000845679
0.000845093
0.000844532
0.000843997
0.000843483
0.000842993
0.000842522
0.000842073
0.000841639
0.000841227
0.000851535
0.000850675
0.00084985
0.00084907
0.000848321
0.000847617
0.000846939
0.000846301
0.000845679
0.000845091
0.000844513
0.00084397
0.000843433
0.000842931
0.00084243
0.000841963
0.000841489
0.000841052
0.000851529
0.000850687
0.000849848
0.000849079
0.000848308
0.000847666
0.00084696
0.000846341
0.000845605
0.000844918
0.000844133
0.000843395
0.000842592
0.00084186
0.000841064
0.000840331
0.000839511
0.000838806
0.000851524
0.000850699
0.000849867
0.000848996
0.00084835
0.000847981
0.000847094
0.000846076
0.000844265
0.000842278
0.000839721
0.000837137
0.000834374
0.000831756
0.000829135
0.000826514
0.000824547
0.000821972
0.000851569
0.000850662
0.000849934
0.000848581
0.000849104
0.000850179
0.000846615
0.000841149
0.000832392
0.000822825
0.000810793
0.000800229
0.000788091
0.00077866
0.0007678
0.000759374
0.000749116
0.00074111
0.000851722
0.000850425
0.000849158
0.000850953
0.000848962
0.000842035
0.000826674
0.000805044
0.000775098
0.000743449
0.000709534
0.000680043
0.000650007
0.000627521
0.000603594
0.000585477
0.000565341
0.000550053
0.000851368
0.000849708
0.000847117
0.000843791
0.000834986
0.000797432
0.000759535
0.000703196
0.000638846
0.000578066
0.000525926
0.000477377
0.000436965
0.000406955
0.000375018
0.000354247
0.000327094
0.00031971
0.000844882
0.00083927
0.000811644
0.000803207
0.000749918
0.00066713
0.000622067
0.000527061
0.000456811
0.000400955
0.000355735
0.000319976
0.000302899
0.000277697
0.000255838
0.000244321
0.000223687
0.000201213
0.000773824
0.000742476
0.000662341
0.000622584
0.000521792
0.000454714
0.000373669
0.000290786
0.000235662
0.000198219
0.00016959
0.000140839
0.000112419
8.9224e-05
7.29435e-05
6.32737e-05
5.13832e-05
4.28251e-05
0.000459408
0.000414171
0.000338877
0.0002791
0.000228601
0.000183621
0.000140415
0.000105896
8.29698e-05
6.39031e-05
4.83154e-05
4.4157e-05
4.08581e-05
3.73521e-05
3.01971e-05
2.56221e-05
2.39719e-05
2.21082e-05
0.000105718
8.5636e-05
7.18138e-05
6.33226e-05
5.97629e-05
5.6841e-05
5.53325e-05
5.37308e-05
5.27911e-05
5.28466e-05
5.23452e-05
5.16437e-05
5.12184e-05
5.1517e-05
5.12857e-05
5.25936e-05
5.27412e-05
5.24541e-05
8.60305e-06
1.56728e-05
1.93266e-05
2.11164e-05
2.19947e-05
2.22168e-05
2.22332e-05
2.20327e-05
2.17032e-05
2.13387e-05
2.09599e-05
2.05818e-05
2.02147e-05
1.98697e-05
1.95397e-05
1.92386e-05
1.89484e-05
1.86898e-05
1.26242e-12
1.42654e-10
7.34506e-10
2.92084e-09
9.83722e-09
3.01184e-08
8.03581e-08
1.64303e-07
2.72496e-07
3.89609e-07
4.97717e-07
5.83706e-07
6.43629e-07
6.72291e-07
6.68017e-07
6.44474e-07
6.00466e-07
5.26938e-07
4.44388e-07
3.77232e-07
3.15922e-07
2.57631e-07
2.01326e-07
1.49426e-07
1.01637e-07
6.26644e-08
3.50446e-08
1.82176e-08
9.30021e-09
4.92477e-09
2.84002e-09
1.86462e-09
1.54672e-09
2.32879e-09
3.59626e-09
1.7671e-08
4.05234e-08
1.22567e-07
2.53083e-07
3.66004e-07
3.87133e-07
3.54712e-07
2.86915e-07
2.55123e-07
2.67703e-07
3.28497e-07
4.10075e-07
6.7943e-07
1.22239e-06
3.01647e-06
9.4578e-06
2.38548e-05
4.11744e-05
5.2749e-05
5.76799e-05
5.33475e-05
4.8221e-05
4.65258e-05
4.42379e-05
3.93485e-05
3.49962e-05
3.67018e-05
2.86912e-05
3.1959e-05
3.20954e-05
3.27837e-05
3.34325e-05
3.39221e-05
3.45323e-05
3.50635e-05
3.56093e-05
3.61517e-05
3.66752e-05
3.72091e-05
3.77255e-05
3.82492e-05
3.87621e-05
3.92775e-05
3.97882e-05
4.02981e-05
4.08078e-05
4.13141e-05
4.18234e-05
4.23274e-05
4.28377e-05
4.33414e-05
4.38523e-05
4.43553e-05
4.48633e-05
4.53643e-05
4.58675e-05
4.63708e-05
4.68758e-05
4.738e-05
4.78842e-05
4.83863e-05
4.88874e-05
4.93848e-05
4.98808e-05
5.03723e-05
5.08637e-05
5.13547e-05
5.18555e-05
5.23527e-05
5.28494e-05
5.33473e-05
5.38474e-05
5.4351e-05
5.48574e-05
5.53701e-05
5.58863e-05
5.64115e-05
5.69414e-05
5.74828e-05
5.80305e-05
5.85923e-05
5.91621e-05
5.97488e-05
6.03478e-05
6.09666e-05
6.15993e-05
6.22508e-05
6.29174e-05
6.36066e-05
6.43162e-05
6.50538e-05
6.58165e-05
6.66107e-05
6.74341e-05
6.82925e-05
6.9196e-05
7.01339e-05
7.11324e-05
7.21384e-05
7.32258e-05
7.43621e-05
7.55772e-05
7.68556e-05
7.79068e-05
7.76641e-05
7.74119e-05
7.71443e-05
7.68656e-05
7.65749e-05
7.62733e-05
7.59614e-05
7.56396e-05
7.53084e-05
7.49686e-05
7.46205e-05
7.42648e-05
7.3902e-05
7.35325e-05
7.31563e-05
7.27747e-05
7.23875e-05
7.19963e-05
7.16013e-05
7.12039e-05
7.08045e-05
7.04043e-05
7.00038e-05
6.96036e-05
6.92038e-05
6.8805e-05
6.84072e-05
6.80109e-05
6.76162e-05
6.7224e-05
6.68344e-05
6.64477e-05
6.60636e-05
6.56813e-05
6.52988e-05
6.49114e-05
6.45114e-05
6.40872e-05
6.36102e-05
6.30238e-05
6.14818e-05
6.11624e-12
9.93155e-10
1.3511e-08
7.20114e-08
3.07263e-07
1.06294e-06
2.45435e-06
4.56533e-06
7.17688e-06
1.01905e-05
1.32886e-05
1.61957e-05
1.87233e-05
2.06042e-05
2.18822e-05
2.22524e-05
2.20686e-05
2.14025e-05
1.95834e-05
1.68795e-05
1.32366e-05
9.89282e-06
7.04734e-06
4.86452e-06
3.1036e-06
1.94689e-06
1.19618e-06
7.44936e-07
4.656e-07
2.98636e-07
2.07076e-07
1.59789e-07
1.49356e-07
1.87109e-07
1.71361e-07
1.1383e-06
2.50366e-06
7.44294e-06
1.41105e-05
1.90997e-05
2.07801e-05
1.96342e-05
1.82398e-05
1.675e-05
1.69752e-05
1.77921e-05
1.76812e-05
2.12579e-05
2.99233e-05
4.11581e-05
5.26057e-05
6.46621e-05
7.53562e-05
8.46851e-05
9.24359e-05
0.000100399
0.000109986
0.000121771
0.000134919
0.000145473
0.000158953
0.000174018
0.000182679
0.00019699
0.000209054
0.00022086
0.000232481
0.000243665
0.000254529
0.000264708
0.000274705
0.000284341
0.000293751
0.000302904
0.000311861
0.000320616
0.000329199
0.000337616
0.000345876
0.000353992
0.000361963
0.000369802
0.000377506
0.000385084
0.000392539
0.000399871
0.000407085
0.00041417
0.000421131
0.000427965
0.000434664
0.000441261
0.000447757
0.000454166
0.000460485
0.000466714
0.000472847
0.000478866
0.000484753
0.000490456
0.000495912
0.000500983
0.000505477
0.000509792
0.000514095
0.00051824
0.00052232
0.000526283
0.000530152
0.000533912
0.000537567
0.000541109
0.000544538
0.000547849
0.000551039
0.000554103
0.000557036
0.000559836
0.000562499
0.000565025
0.00056741
0.000569646
0.000571723
0.000573637
0.000575383
0.000576965
0.000578376
0.00057962
0.00058069
0.000581587
0.000582303
0.000582856
0.000583258
0.000583438
0.000583518
0.000583334
0.000583128
0.000582938
0.000582805
0.000582712
0.000582481
0.000582104
0.000581585
0.00058093
0.000580142
0.000579227
0.000578186
0.000577025
0.000575745
0.000574351
0.000572843
0.000571234
0.000569522
0.000567712
0.000565796
0.000563786
0.000561683
0.000559497
0.000557236
0.000554908
0.000552519
0.000550075
0.000547583
0.000545044
0.00054246
0.000539831
0.000537159
0.000534444
0.000531692
0.000528903
0.000526079
0.000523214
0.000520299
0.000517324
0.00051421
0.000510889
0.000507225
0.000502916
0.000497198
0.000481285
1.6818e-11
2.89719e-09
5.54362e-08
3.44203e-07
9.62136e-07
2.6372e-06
5.68108e-06
9.97805e-06
1.53675e-05
2.15781e-05
2.82632e-05
3.49497e-05
4.10642e-05
4.62394e-05
5.03778e-05
5.30289e-05
5.47498e-05
5.52237e-05
5.4443e-05
5.19791e-05
4.79708e-05
4.25606e-05
3.5655e-05
2.84926e-05
2.17713e-05
1.58782e-05
1.09355e-05
7.37338e-06
4.75415e-06
3.09695e-06
2.11964e-06
1.58722e-06
1.30234e-06
1.40886e-06
1.85485e-06
6.36036e-06
1.57655e-05
3.51083e-05
5.1182e-05
5.92433e-05
5.73204e-05
4.68259e-05
3.93806e-05
4.00211e-05
4.71109e-05
5.44179e-05
6.40006e-05
7.7532e-05
8.94609e-05
0.000103076
0.00012053
0.000139455
0.000160648
0.000183412
0.00020958
0.000238687
0.000268604
0.000298872
0.000330656
0.000359646
0.000389501
0.000417149
0.000443042
0.000468634
0.000493803
0.000517022
0.000539829
0.000561684
0.000582553
0.000602734
0.000622375
0.000641474
0.000660138
0.000678385
0.000696274
0.000713821
0.000731059
0.000748
0.00076466
0.000781051
0.000797178
0.000813052
0.000828674
0.000844053
0.00085919
0.000874091
0.000888754
0.000903181
0.000917368
0.000931313
0.000945017
0.000958501
0.000971771
0.000984829
0.000997669
0.00101028
0.00102265
0.00103474
0.00104653
0.00105798
0.00106903
0.00107965
0.00108992
0.00110002
0.00110996
0.00111967
0.00112919
0.00113849
0.00114758
0.00115644
0.00116507
0.00117345
0.0011816
0.00118948
0.00119711
0.00120446
0.00121152
0.0012183
0.00122478
0.00123096
0.00123683
0.00124238
0.00124759
0.00125244
0.00125695
0.00126109
0.00126488
0.0012683
0.00127137
0.00127406
0.00127639
0.00127837
0.00127999
0.00128125
0.0012822
0.00128273
0.00128307
0.00128332
0.00128333
0.0012831
0.00128255
0.00128167
0.00128048
0.00127899
0.00127721
0.00127513
0.00127278
0.00127016
0.00126728
0.00126415
0.00126078
0.00125717
0.00125334
0.00124928
0.001245
0.00124051
0.00123582
0.00123095
0.00122591
0.00122072
0.00121541
0.00120998
0.00120444
0.0011988
0.00119308
0.00118725
0.00118134
0.00117534
0.00116927
0.00116312
0.0011569
0.0011506
0.0011442
0.00113765
0.00113083
0.00112358
0.0011156
0.00110613
0.00109327
0.00106441
5.9821e-11
1.01388e-08
1.65035e-07
7.51423e-07
2.23061e-06
6.19939e-06
1.24826e-05
2.10038e-05
3.12485e-05
4.2187e-05
5.28751e-05
6.29037e-05
7.16313e-05
7.85761e-05
8.37166e-05
8.73018e-05
8.90022e-05
8.92231e-05
8.8087e-05
8.57116e-05
8.17036e-05
7.67122e-05
7.00689e-05
6.18494e-05
5.24321e-05
4.27319e-05
3.33082e-05
2.5293e-05
1.88467e-05
1.38768e-05
1.02365e-05
7.86583e-06
6.47981e-06
7.62483e-06
1.29345e-05
2.83627e-05
5.03094e-05
6.68331e-05
7.44068e-05
7.15337e-05
6.94093e-05
7.05464e-05
7.50047e-05
8.31105e-05
9.45525e-05
0.000110261
0.00012211
0.000142932
0.000165182
0.000193107
0.000225187
0.000260813
0.000299725
0.000341075
0.000384592
0.000429051
0.000473683
0.000517571
0.000560827
0.000601831
0.000641869
0.000679938
0.000716396
0.000751675
0.000786133
0.000818679
0.000850313
0.0008809
0.000910572
0.000939486
0.000967735
0.000995376
0.00102248
0.0010491
0.00107526
0.00110099
0.00112633
0.00115127
0.00117584
0.00120003
0.00122387
0.00124734
0.00127046
0.00129322
0.00131563
0.00133768
0.00135939
0.00138074
0.00140174
0.00142238
0.00144266
0.00146259
0.00148217
0.00150141
0.0015203
0.00153883
0.00155699
0.00157475
0.00159212
0.00160906
0.00162557
0.00164168
0.00165747
0.00167297
0.00168819
0.00170308
0.00171766
0.00173191
0.00174582
0.00175938
0.00177259
0.00178543
0.00179789
0.00180995
0.00182161
0.00183286
0.00184367
0.00185404
0.00186396
0.00187343
0.00188243
0.00189095
0.00189896
0.00190646
0.00191343
0.00191989
0.00192581
0.00193121
0.00193607
0.00194042
0.00194423
0.00194752
0.00195028
0.00195255
0.00195432
0.00195553
0.00195647
0.00195708
0.00195723
0.00195694
0.00195619
0.00195497
0.0019533
0.00195119
0.00194865
0.00194569
0.00194233
0.00193857
0.00193443
0.00192992
0.00192506
0.00191986
0.00191432
0.00190845
0.00190226
0.00189577
0.00188898
0.00188192
0.00187462
0.00186711
0.00185939
0.0018515
0.00184346
0.00183526
0.00182692
0.00181844
0.00180982
0.00180107
0.00179221
0.00178323
0.00177415
0.00176496
0.00175562
0.00174607
0.00173616
0.00172569
0.00171426
0.0017008
0.00168277
0.00164859
2.01086e-10
3.05421e-08
3.71095e-07
1.70919e-06
5.96753e-06
1.46071e-05
2.74521e-05
4.31423e-05
5.98006e-05
7.57869e-05
9.00019e-05
0.000101354
0.00010977
0.000115994
0.000119704
0.00012156
0.000121791
0.000120587
0.000118138
0.000114639
0.000109774
0.0001043
9.76651e-05
8.97595e-05
8.04448e-05
6.99782e-05
5.8698e-05
4.7908e-05
3.85407e-05
3.09397e-05
2.47551e-05
2.06686e-05
2.06841e-05
2.82086e-05
4.79178e-05
6.99795e-05
8.32398e-05
8.94134e-05
9.22398e-05
9.51544e-05
0.000100519
0.000109759
0.000123827
0.000137887
0.000151167
0.000174089
0.000202803
0.000236079
0.000274507
0.000318598
0.00036583
0.000416198
0.000468532
0.000522124
0.000576262
0.000630175
0.000683435
0.000735362
0.000785842
0.000834717
0.000881677
0.000927387
0.00097158
0.00101426
0.00105567
0.00109568
0.00113464
0.00117259
0.00120965
0.00124591
0.00128147
0.00131638
0.0013507
0.00138447
0.00141772
0.00145047
0.00148275
0.00151455
0.00154589
0.00157677
0.00160719
0.00163715
0.00166665
0.00169569
0.00172427
0.00175239
0.00178004
0.00180723
0.00183395
0.0018602
0.00188598
0.00191128
0.00193613
0.00196052
0.00198445
0.00200792
0.00203091
0.00205343
0.00207548
0.00209706
0.00211817
0.00213885
0.00215911
0.00217899
0.00219845
0.00221749
0.0022361
0.00225428
0.002272
0.00228926
0.00230605
0.00232235
0.00233815
0.00235344
0.0023682
0.00238241
0.00239607
0.00240916
0.00242168
0.00243362
0.00244496
0.00245569
0.0024658
0.00247526
0.00248408
0.00249226
0.00249979
0.00250667
0.0025129
0.0025185
0.00252346
0.00252779
0.00253143
0.00253451
0.00253691
0.0025387
0.00254016
0.00254106
0.00254138
0.00254115
0.00254035
0.002539
0.0025371
0.00253467
0.00253172
0.00252826
0.00252431
0.00251988
0.00251499
0.00250966
0.00250389
0.0024977
0.00249111
0.00248411
0.00247672
0.00246895
0.00246083
0.00245238
0.00244362
0.00243459
0.00242531
0.0024158
0.00240608
0.00239616
0.00238606
0.00237576
0.00236528
0.00235463
0.00234382
0.00233286
0.00232174
0.00231046
0.00229899
0.00228728
0.00227518
0.00226248
0.00224876
0.00223295
0.00221218
0.00217779
6.30992e-10
7.51397e-08
9.02506e-07
4.56008e-06
1.52581e-05
3.28407e-05
5.45537e-05
7.7217e-05
9.75484e-05
0.000113883
0.000126154
0.00013553
0.000141719
0.000145339
0.000146947
0.000146948
0.000145623
0.000143146
0.000139689
0.000135278
0.000129817
0.000123851
0.000116958
0.00010897
9.99088e-05
8.55694e-05
7.10061e-05
5.70216e-05
4.42188e-05
3.50252e-05
3.20191e-05
3.51426e-05
4.89016e-05
7.1208e-05
9.092e-05
0.000103828
0.000111558
0.00011684
0.00012324
0.000133926
0.000150673
0.000161819
0.00017618
0.000200455
0.000229657
0.000266136
0.000308592
0.000356291
0.000408511
0.000464227
0.00052194
0.000581404
0.000641619
0.000702051
0.000762173
0.00082155
0.000879943
0.000936792
0.00099204
0.00104631
0.00109876
0.00114981
0.00119945
0.00124773
0.00129474
0.00134057
0.00138535
0.00142916
0.0014721
0.00151424
0.00155566
0.00159641
0.00163653
0.00167606
0.00171501
0.00175341
0.00179126
0.00182857
0.00186533
0.00190156
0.00193723
0.00197236
0.00200693
0.00204095
0.00207442
0.00210732
0.00213966
0.00217144
0.00220265
0.0022333
0.00226337
0.00229287
0.00232182
0.00235022
0.00237806
0.00240536
0.0024321
0.00245829
0.00248395
0.00250907
0.00253367
0.00255775
0.00258132
0.00260439
0.00262695
0.00264899
0.00267049
0.00269146
0.00271188
0.00273174
0.00275102
0.00276972
0.00278783
0.00280532
0.00282217
0.00283839
0.00285396
0.00286887
0.00288311
0.00289668
0.00290956
0.00292174
0.00293321
0.00294396
0.00295399
0.0029633
0.00297188
0.00297974
0.00298688
0.00299332
0.00299909
0.00300409
0.00300838
0.00301202
0.0030149
0.00301718
0.003019
0.00302016
0.00302068
0.00302058
0.00301987
0.00301854
0.00301663
0.00301414
0.0030111
0.00300749
0.00300335
0.00299868
0.00299352
0.00298786
0.00298173
0.00297514
0.0029681
0.00296062
0.0029527
0.00294437
0.00293564
0.00292654
0.00291709
0.00290733
0.00289727
0.00288695
0.00287637
0.00286555
0.0028545
0.00284321
0.0028317
0.00281997
0.00280804
0.00279593
0.00278362
0.00277112
0.00275841
0.00274544
0.00273209
0.00271816
0.00270331
0.00268655
0.00266529
0.00263286
1.99194e-09
1.88768e-07
2.37681e-06
1.25754e-05
3.38137e-05
6.15375e-05
8.88615e-05
0.000111527
0.000129073
0.000142171
0.000151896
0.000158123
0.000161746
0.000163321
0.000163339
0.000162113
0.000159847
0.000156669
0.000152573
0.000147511
0.000141578
0.000134867
0.000126954
0.000113862
9.79978e-05
8.40847e-05
7.15587e-05
6.05866e-05
5.34435e-05
5.40866e-05
6.503e-05
8.0828e-05
0.000104126
0.000119598
0.000130898
0.000139042
0.000146782
0.000158049
0.000175367
0.000183424
0.000197988
0.000221075
0.000249466
0.000285913
0.000328312
0.000377518
0.000431586
0.0004895
0.000550182
0.000612748
0.000676407
0.000740744
0.000805154
0.000869283
0.000932834
0.000995141
0.00105631
0.00111668
0.00117551
0.00123308
0.00128921
0.00134401
0.00139754
0.00144984
0.00150099
0.00155107
0.00160015
0.00164832
0.00169565
0.00174221
0.00178804
0.00183318
0.00187768
0.00192156
0.00196483
0.0020075
0.00204957
0.00209104
0.0021319
0.00217216
0.0022118
0.00225081
0.00228919
0.00232693
0.00236404
0.00240051
0.00243634
0.00247152
0.00250606
0.00253995
0.00257319
0.00260579
0.00263775
0.00266907
0.00269978
0.00272985
0.0027593
0.00278813
0.00281634
0.00284392
0.0028709
0.00289728
0.00292306
0.00294825
0.00297284
0.00299682
0.00302019
0.00304293
0.00306505
0.00308652
0.00310735
0.00312751
0.00314701
0.00316583
0.00318398
0.00320143
0.00321817
0.00323419
0.00324948
0.00326404
0.00327786
0.00329092
0.00330323
0.00331476
0.00332553
0.00333553
0.00334477
0.00335324
0.00336095
0.00336793
0.00337423
0.00337967
0.0033844
0.00338843
0.00339163
0.00339429
0.00339636
0.00339773
0.00339844
0.0033985
0.00339792
0.00339671
0.0033949
0.00339248
0.0033895
0.00338599
0.00338197
0.00337741
0.00337235
0.00336678
0.00336072
0.00335419
0.0033472
0.00333974
0.00333184
0.0033235
0.00331475
0.0033056
0.00329609
0.00328623
0.00327605
0.00326557
0.0032548
0.00324376
0.00323244
0.00322086
0.00320901
0.0031969
0.00318455
0.00317198
0.00315918
0.00314616
0.00313292
0.0031194
0.00310553
0.00309116
0.00307599
0.00305923
0.00303887
0.00300958
5.95069e-09
4.94969e-07
6.29706e-06
2.75298e-05
5.9669e-05
9.29392e-05
0.000120946
0.000142305
0.000157426
0.000167267
0.000172474
0.000174755
0.000175222
0.00017443
0.000172653
0.000170063
0.000166694
0.000162397
0.00015717
0.000151143
0.000144478
0.000136841
0.000123741
0.000107132
9.24403e-05
8.05309e-05
7.33561e-05
7.33711e-05
7.77995e-05
9.05074e-05
0.000112193
0.000135822
0.000155856
0.000165528
0.000174771
0.000186289
0.000196325
0.000203422
0.000216853
0.000237451
0.00026404
0.000298275
0.00033877
0.000386315
0.000439364
0.000497408
0.000558663
0.000622244
0.000687384
0.000753525
0.000820174
0.000886927
0.000953432
0.00101908
0.0010838
0.0011481
0.00121111
0.00127312
0.00133389
0.00139345
0.00145178
0.00150891
0.0015649
0.00161978
0.00167363
0.00172649
0.00177843
0.00182952
0.0018798
0.00192934
0.00197817
0.00202634
0.00207386
0.00212075
0.00216703
0.00221268
0.0022577
0.0023021
0.00234584
0.00238893
0.00243135
0.00247308
0.00251412
0.00255447
0.00259412
0.00263308
0.00267132
0.00270887
0.00274572
0.00278187
0.0028173
0.00285203
0.00288607
0.00291941
0.00295207
0.00298404
0.00301533
0.00304594
0.00307585
0.00310508
0.00313364
0.00316155
0.00318881
0.0032154
0.00324133
0.00326659
0.00329118
0.00331509
0.00333832
0.00336086
0.0033827
0.00340383
0.00342425
0.00344395
0.00346291
0.00348113
0.0034986
0.00351531
0.00353125
0.00354643
0.00356084
0.00357446
0.0035873
0.00359935
0.00361062
0.0036211
0.00363079
0.0036397
0.00364783
0.00365525
0.00366195
0.00366778
0.00367291
0.00367729
0.00368086
0.00368391
0.00368629
0.00368798
0.003689
0.00368936
0.00368909
0.00368819
0.00368668
0.00368459
0.00368192
0.0036787
0.00367493
0.00367064
0.00366583
0.00366052
0.00365472
0.00364844
0.0036417
0.00363449
0.00362684
0.00361874
0.00361023
0.00360131
0.00359202
0.00358236
0.00357238
0.00356206
0.00355144
0.00354052
0.00352929
0.00351776
0.00350593
0.00349381
0.00348142
0.00346877
0.00345586
0.00344271
0.00342931
0.00341564
0.00340164
0.00338721
0.00337213
0.00335592
0.00333692
0.00331132
1.55608e-08
1.22424e-06
1.44147e-05
4.71609e-05
8.62991e-05
0.000120132
0.000145797
0.000164285
0.000176009
0.000182451
0.000185027
0.000184843
0.000182792
0.000179611
0.000175739
0.000171331
0.000166379
0.000160871
0.00015479
0.000148008
0.000140726
0.00013212
0.000118649
0.00010892
0.000103905
9.88365e-05
9.69087e-05
0.000104896
0.000121516
0.000141165
0.000161394
0.000179636
0.000194271
0.00020416
0.000211921
0.000220475
0.000232798
0.000250781
0.00027483
0.000305912
0.000343416
0.000387582
0.000437533
0.000492998
0.000552657
0.000615534
0.000680428
0.000746727
0.00081386
0.000881427
0.000949079
0.00101642
0.00108295
0.00114911
0.00121448
0.00127902
0.00134254
0.00140502
0.0014664
0.00152667
0.00158585
0.00164395
0.00170101
0.00175708
0.00181221
0.00186644
0.00191982
0.00197241
0.00202425
0.00207539
0.00212588
0.00217574
0.00222501
0.00227368
0.00232177
0.00236922
0.00241606
0.00246228
0.00250784
0.00255272
0.00259691
0.00264038
0.00268312
0.00272514
0.00276642
0.00280699
0.00284685
0.00288599
0.00292438
0.00296201
0.00299889
0.00303501
0.00307038
0.00310502
0.00313892
0.00317209
0.00320452
0.00323623
0.00326723
0.00329751
0.00332708
0.00335594
0.0033841
0.00341154
0.00343827
0.00346428
0.00348957
0.00351414
0.00353799
0.00356112
0.00358351
0.00360516
0.00362606
0.00364622
0.00366561
0.00368425
0.00370211
0.0037192
0.00373551
0.00375105
0.0037658
0.00377976
0.00379293
0.00380531
0.0038169
0.0038277
0.00383772
0.00384695
0.00385542
0.0038632
0.0038702
0.0038764
0.00388189
0.00388661
0.0038906
0.00389402
0.00389675
0.00389881
0.00390021
0.00390097
0.0039011
0.00390063
0.00389956
0.00389792
0.00389573
0.003893
0.00388974
0.00388597
0.0038817
0.00387696
0.00387174
0.00386606
0.00385993
0.00385334
0.00384632
0.00383886
0.00383099
0.00382273
0.00381409
0.00380509
0.00379575
0.00378607
0.00377607
0.00376574
0.00375509
0.00374412
0.00373282
0.0037212
0.00370927
0.00369705
0.00368455
0.00367177
0.00365873
0.00364541
0.00363178
0.00361777
0.00360325
0.00358773
0.00356995
0.00354747
3.49261e-08
2.82716e-06
2.65196e-05
6.98908e-05
0.000112915
0.000146832
0.000170189
0.000184368
0.00019187
0.000193898
0.000192338
0.000188584
0.000183582
0.000177905
0.000171917
0.000165423
0.000158761
0.00015145
0.000144015
0.000136215
0.00012817
0.000120029
0.00011318
0.000109599
0.000111404
0.000119444
0.000132731
0.000148764
0.000166141
0.000183253
0.000198812
0.00021129
0.000221541
0.000232609
0.00024509
0.000261649
0.000283085
0.000310802
0.000344771
0.000384957
0.000430827
0.000482081
0.000538017
0.000597971
0.000660867
0.000725814
0.000792004
0.00085896
0.000926298
0.000993729
0.00106065
0.00112707
0.00119324
0.00125865
0.00132324
0.00138693
0.00144964
0.00151136
0.00157206
0.00163174
0.0016904
0.00174808
0.0018048
0.00186063
0.00191562
0.00196982
0.00202327
0.00207598
0.002128
0.00217941
0.00223027
0.00228058
0.0023304
0.00237973
0.00242864
0.00247722
0.00252523
0.00257261
0.00261932
0.00266533
0.00271062
0.00275515
0.00279891
0.00284189
0.00288409
0.00292552
0.00296615
0.00300601
0.00304513
0.00308351
0.00312114
0.00315804
0.00319419
0.0032296
0.00326427
0.0032982
0.00333139
0.00336384
0.00339555
0.00342652
0.00345674
0.00348622
0.00351494
0.00354291
0.00357014
0.00359661
0.00362233
0.00364731
0.00367153
0.003695
0.00371772
0.00373968
0.00376088
0.00378131
0.00380098
0.00381988
0.003838
0.00385535
0.00387192
0.00388771
0.00390272
0.00391695
0.0039304
0.00394306
0.00395495
0.00396606
0.00397639
0.00398595
0.00399477
0.00400291
0.00401025
0.00401684
0.00402273
0.00402786
0.00403232
0.00403617
0.00403934
0.00404185
0.00404373
0.00404498
0.00404563
0.00404569
0.00404518
0.00404412
0.00404253
0.00404042
0.00403781
0.00403472
0.00403116
0.00402714
0.00402267
0.00401776
0.00401242
0.00400665
0.00400045
0.00399384
0.00398683
0.00397944
0.00397169
0.00396358
0.00395513
0.00394635
0.00393723
0.00392778
0.00391799
0.00390786
0.00389738
0.00388656
0.00387541
0.00386393
0.00385215
0.00384006
0.00382769
0.00381502
0.00380205
0.00378875
0.00377502
0.00376052
0.0037442
0.00372517
6.74154e-08
5.86175e-06
4.00699e-05
8.96367e-05
0.000134284
0.000167456
0.000188594
0.000199175
0.000202212
0.000200292
0.000195319
0.000188594
0.000181039
0.00017287
0.000164785
0.000156505
0.000148631
0.000141621
0.000135906
0.00013122
0.000128041
0.000127425
0.000130171
0.000136493
0.000146269
0.000158805
0.000173128
0.000188095
0.000202782
0.00021592
0.000227293
0.000239758
0.000253871
0.000270058
0.000289742
0.000314589
0.000344957
0.000381066
0.000422582
0.000469147
0.000520294
0.000575597
0.00063445
0.000696153
0.000759862
0.000824866
0.0008906
0.00095669
0.00102277
0.00108829
0.00115367
0.00121845
0.00128264
0.001346
0.00140846
0.00146996
0.00153047
0.00159002
0.00164861
0.00170625
0.00176297
0.00181872
0.0018736
0.00192771
0.0019811
0.00203386
0.00208608
0.00213796
0.00218957
0.00224068
0.0022913
0.00234144
0.00239112
0.00244039
0.00248922
0.00253752
0.00258536
0.00263267
0.00267941
0.00272555
0.00277104
0.00281585
0.00285993
0.00290326
0.00294585
0.00298769
0.00302882
0.00306923
0.00310894
0.00314793
0.0031862
0.00322374
0.00326055
0.00329662
0.00333196
0.00336654
0.00340037
0.00343344
0.00346575
0.00349729
0.00352806
0.00355805
0.00358726
0.00361569
0.00364334
0.00367022
0.00369632
0.00372165
0.0037462
0.00377
0.00379302
0.00381527
0.00383676
0.00385748
0.00387742
0.0038966
0.00391501
0.00393266
0.00394952
0.00396562
0.00398095
0.0039955
0.00400929
0.00402231
0.00403457
0.00404607
0.00405681
0.00406678
0.00407606
0.00408461
0.00409242
0.0040995
0.00410588
0.00411155
0.00411658
0.00412096
0.00412468
0.00412776
0.00413022
0.00413208
0.00413336
0.00413407
0.00413423
0.00413387
0.00413299
0.00413162
0.00412978
0.00412747
0.00412473
0.00412155
0.00411795
0.00411394
0.00410952
0.00410468
0.00409944
0.00409381
0.00408779
0.00408141
0.00407469
0.00406762
0.00406023
0.00405251
0.00404446
0.00403607
0.00402734
0.00401824
0.00400879
0.00399898
0.00398881
0.00397831
0.00396746
0.0039563
0.00394481
0.00393301
0.00392091
0.00390849
0.00389572
0.00388234
0.00386741
0.00385147
1.10007e-07
1.03597e-05
5.56345e-05
0.000111679
0.000157264
0.00018773
0.000204456
0.000210845
0.000210223
0.000205218
0.00019774
0.00018894
0.000179862
0.000171121
0.000163347
0.000156686
0.000151355
0.000148
0.00014634
0.000146669
0.000149309
0.00015443
0.000161964
0.000171615
0.00018293
0.000195391
0.000208324
0.000220774
0.000232446
0.000245096
0.000260059
0.00027677
0.00029564
0.000318403
0.000345698
0.000377999
0.000415214