/*--------------------------------*- C++ -*----------------------------------*\
  =========                 |
  \\      /  F ield         | OpenFOAM: The Open Source CFD Toolbox
   \\    /   O peration     | Website:  https://openfoam.org
    \\  /    A nd           | Version:  13
     \\/     M anipulation  |
\*---------------------------------------------------------------------------*/
FoamFile
{
    format      ascii;
    class       volScalarField;
    location    "1400";
    object      omega;
}
// * * * * * * * * * * * * * * * * * * * * * * * * * * * * * * * * * * * * * //

dimensions      [0 0 -1 0 0 0 0];

internalField   nonuniform List<scalar> 
12225
(
31477.7
42282.5
39777.8
39929.1
31477.7
43883.5
49227.6
43189.6
38896.3
31477.7
31477.7
31477.7
40351.3
45322.5
47628.1
47323.5
48350.8
47667.5
0.378361
12450.5
13878.4
14495.3
16970.7
17174.2
21168.5
20949.9
20178.7
19532.8
18628.3
18651.1
19118.8
20088.6
19877.2
21022.5
20161.2
21161.6
914.36
21503.3
12416.3
9040.63
8823.42
8567.87
8397.86
8311.16
8633.09
8409.89
8212.65
8035.96
8055.22
8024.49
9318.31
9203.04
9632.39
10278.6
580.423
4697.6
3020.4
2228.36
2701.32
3593.77
4026.39
4674.87
4795.42
4914.03
4999.42
6287.21
6528.16
6439.84
8256.77
7921.01
8557.93
8545.66
532.22
1796.98
2005.36
1292.16
1237.62
1514.7
1603.38
1700.88
3336.99
4086.89
4097.24
5665.73
8069.16
7756.39
8336.64
8515.24
8035.29
7430
148.62
1147.11
1532.97
1436.42
1353.22
1307.4
1408.14
1669.2
1967.27
1980.78
2154.29
2254.65
2390.04
2408.19
2613.36
2697.12
3053.28
3113.5
345.142
580.698
694.182
818.506
942.424
1005.24
1013.68
1083.63
1243.46
1329.03
1339.75
1408.75
1454.09
1463.01
1500.74
1620.26
1802.98
1906.27
399.065
522.094
589.537
618.601
659.199
723.934
791.404
854.266
917.053
944.72
944.916
966.715
1003.73
1014.13
1022.65
1039.9
1052.92
1074.7
425.753
458.073
489.551
504.512
516.265
544.478
576.919
609.96
639.322
663.205
679.061
694.932
709.452
716.861
720.76
724.155
725.887
731.981
437.37
439.624
447.187
452.291
456.923
467.16
479.699
494.701
507.294
518.701
528.099
536.658
543.704
547.985
552.092
553.56
558.453
558.431
438.5
436.99
436.786
437.035
437.163
438.889
442.233
446.833
451.06
455.64
458.883
463.468
466.888
468.252
471.711
472.698
472.799
473.87
438.965
436.774
435.063
433.232
432.27
431.093
430.955
431.512
432.174
432.901
434.128
434.737
436.069
436.496
437.082
437.418
437.702
437.612
439.02
436.764
434.755
432.669
430.991
429.336
427.969
426.808
425.832
424.95
424.187
423.453
422.738
421.989
421.147
420.595
419.837
419.549
439.011
436.771
434.684
432.654
430.775
428.992
427.329
425.767
424.286
422.927
421.584
420.37
419.145
418.038
416.874
415.886
414.873
414.044
439.003
436.774
434.663
432.655
430.75
428.943
427.226
425.6
424.042
422.577
421.161
419.831
418.541
417.332
416.151
415.048
413.982
412.986
439.001
436.773
434.657
432.65
430.741
428.931
427.204
425.568
424.003
422.521
421.1
419.753
418.461
417.235
416.059
414.941
413.87
412.85
439.001
436.772
434.655
432.645
430.736
428.92
427.194
425.551
423.988
422.498
421.079
419.726
418.436
417.204
416.029
414.908
413.837
412.814
438.999
436.769
434.65
432.638
430.726
428.908
427.18
425.534
423.969
422.477
421.057
419.701
418.41
417.177
416.001
414.878
413.806
412.782
439
436.771
434.653
432.641
430.729
428.912
427.183
425.538
423.973
422.48
421.06
419.705
418.414
417.181
416.006
414.883
413.812
412.788
439.004
436.768
434.659
432.64
430.739
428.912
427.192
425.54
423.983
422.491
421.08
419.729
418.449
417.223
416.06
414.946
413.891
412.878
439.003
436.771
434.658
432.649
430.746
428.908
427.192
425.541
424.03
422.585
421.264
419.998
418.833
417.703
416.665
415.657
414.743
413.83
439.008
436.765
434.656
432.697
430.746
428.774
427.148
425.671
424.64
423.771
423.235
422.792
422.491
422.195
421.938
421.751
421.253
421.142
438.986
436.794
434.621
432.925
430.402
427.71
427.305
427.845
429.997
432.662
436.697
440.179
444.655
447.852
451.946
454.818
458.816
461.665
438.915
436.914
435.02
431.791
430.569
431.671
436.659
444.928
458.078
473.404
491.569
508.668
527.731
542.461
559.42
572.358
587.895
599.653
439.089
437.255
436.137
435.621
437.812
454.468
470.999
500.725
540.92
586.569
632.581
685.395
735.987
778.221
830.233
865.326
920.47
926.843
442.272
442.655
455.529
457.95
487.163
539.013
562.666
638.859
704.768
765.314
824.835
877.734
889.44
933.375
971.539
978.804
1018.81
1087.83
481.886
500.724
560.297
593.516
702.689
785.556
907.6
1072.7
1196.16
1259.51
1295.14
1357.02
1492.38
1654.37
1767.93
1774.87
1913.56
2003.02
807.218
907.082
1119.18
1363.38
1663.72
2006.44
2450.22
2879.82
3188.66
3576.9
3721.13
3873.1
4167.18
4303.97
4373.93
4554.02
4709.17
4760.02
3519.87
4875.47
6231.92
7385.03
8261.31
8937.16
9450.7
9861.47
10167.1
10368.2
10548.5
10653.5
10730.8
10769.8
10839.7
10873.4
10987.1
11013.5
21418.1
24132.6
25713.9
26485.9
26834.4
26794.6
26660
26373
26031.4
25668.4
25302.4
24944.6
24602.7
24279.1
23975.2
23688.8
23418.9
23172.9
11463.2
2514.24
2516.41
2518.61
2520.83
2523.07
2525.32
2527.6
2529.9
2532.22
2534.57
2536.93
2539.31
2541.72
2544.15
2546.6
2549.08
2551.57
2554.09
2556.64
2559.2
2561.79
2564.41
2567.05
2569.71
2572.4
2575.12
2577.86
2580.62
2583.41
2586.23
2589.08
2591.95
2594.85
2597.77
2600.73
2603.71
2606.72
2609.76
2612.82
2615.92
2619.05
2622.2
2625.39
2628.61
2631.86
2635.14
2638.45
2641.79
2645.17
2648.58
2652.02
2655.5
2659.01
2662.55
2666.13
2669.74
2673.39
2677.08
2680.8
3199.99
2688.35
3173.04
3249.93
3370.29
3451.05
3542.7
3616.67
3694.37
3767.41
3837.65
3906.92
3973.09
4038.52
4101.66
4163.86
4224.41
4283.83
4342.03
4399
4455.06
4509.82
4563.87
4616.57
4668.75
4719.58
4769.96
4819
4867.52
4914.81
4961.39
5007.09
5052.07
5096.15
5139.42
5181.71
5223.11
5263.41
5302.75
5340.89
5378.03
5414.07
5449.48
5484.12
5517.68
5550.39
5582.13
5613.02
5642.9
5671.94
5699.9
5727.02
5753
5778.13
5802.08
5825.15
5847.01
5867.95
5887.71
5906.56
5924.24
5940.9
5956.33
5970.7
5983.86
5996
6006.98
6016.94
6025.75
6033.5
6040.61
6047.14
6051.2
6055.81
6057.92
6060.37
6062.19
6063.2
6062.75
6060.71
6057.97
6054.16
6049.59
6044.18
6038.03
6031.14
6023.57
6015.33
6006.48
5997.03
5987.04
5976.51
5965.52
5954.04
5942.14
5929.86
5917.28
5904.44
5891.45
5878.34
5865.21
5852.06
5838.97
5825.94
5813.01
5800.17
5787.49
5774.95
5762.66
5750.59
5738.81
5727.25
5715.88
5704.51
5692.73
5679.85
5664.84
5645.14
5615.65
5500.43
11463.2
1991.78
992.422
808.485
692.148
611.135
614.789
614.458
606.452
586.357
563.705
540.706
519.421
501.693
489.131
480.564
478.425
479.636
497.977
534.938
610.747
705.764
812.771
921.227
1023.53
1104.75
1164.29
1174.62
1155.62
1100.2
997.313
874.945
722.305
617.865
545.269
485.555
455.786
451.888
460.08
480.013
511.576
542.524
578.74
658.489
781.185
996.56
1335.27
1657.03
1872.13
1993.27
2058.33
2069.84
2044.98
1998.74
1948.88
1898.63
1863.57
1815.79
1756.91
1730.55
1699.62
1654.47
1672.38
1654.1
1648.18
1644.2
1641.66
1640.29
1640.81
1644.41
1648.32
1653.54
1659.2
1665.62
1672.35
1679.53
1686.94
1694.59
1702.4
1710.34
1718.39
1726.48
1734.65
1742.82
1751.02
1759.19
1767.36
1775.48
1783.6
1791.62
1799.65
1807.56
1815.37
1823.01
1830.47
1837.73
1844.78
1851.67
1858.43
1865.19
1872.12
1879.65
1888.39
1897.13
1905.37
1913.55
1921.4
1929.04
1936.42
1943.56
1950.45
1957.07
1963.46
1969.58
1975.46
1981.08
1986.46
1991.59
1996.49
2001.15
2005.57
2009.73
2013.64
2017.31
2020.76
2023.99
2027.01
2029.82
2032.44
2034.86
2037.14
2039.2
2041.03
2042.75
2044.24
2045.69
2046.92
2047.74
2047.77
2047.26
2046.47
2045.5
2044.34
2043.01
2041.51
2039.85
2038.04
2036.07
2033.97
2031.73
2029.38
2026.88
2024.27
2021.54
2018.73
2015.82
2012.86
2009.83
2006.76
2003.64
2000.5
1997.34
1994.16
1990.97
1987.78
1984.59
1981.41
1978.25
1975.12
1972.03
1969
1966.04
1963.16
1960.33
1957.69
1955.26
1953.11
1951.76
1950.21
1959.27
11463.2
2009.06
803.216
615.093
644.124
660.102
639.179
590.274
533.769
479.078
429.938
388.475
355.649
329.713
309.559
294.1
282.751
275.021
270.281
271.433
278.739
293.558
321.59
360.265
411.541
468.125
530.982
581.903
622.667
633.732
624.081
596.207
541.499
478.473
416.414
373.011
370.826
381.198
405.532
445.025
521.746
636.277
790.803
988.112
1170.66
1320.88
1456.31
1534.08
1559.39
1547.06
1495.46
1437.56
1374.2
1317.24
1266.45
1223.85
1188.79
1159.8
1134.28
1119.54
1105.25
1096.75
1093.24
1089.59
1085.88
1085.47
1085.14
1085.83
1087.74
1090.25
1093.15
1096.49
1100.1
1103.98
1108.03
1112.27
1116.62
1121.09
1125.64
1130.26
1134.93
1139.64
1144.38
1149.14
1153.9
1158.66
1163.42
1168.16
1172.87
1177.54
1182.17
1186.75
1191.27
1195.73
1200.12
1204.44
1208.73
1212.99
1217.25
1221.57
1225.98
1230.55
1235.16
1239.64
1243.93
1248.12
1252.15
1256.04
1259.79
1263.39
1266.84
1270.15
1273.31
1276.32
1279.19
1281.91
1284.49
1286.93
1289.23
1291.39
1293.41
1295.28
1297.01
1298.6
1300.06
1301.39
1302.6
1303.68
1304.64
1305.48
1306.21
1306.81
1307.3
1307.67
1307.93
1308.07
1308.06
1307.84
1307.37
1306.73
1305.98
1305.13
1304.17
1303.12
1301.97
1300.73
1299.39
1297.97
1296.47
1294.89
1293.23
1291.49
1289.68
1287.81
1285.89
1283.91
1281.89
1279.82
1277.72
1275.58
1273.41
1271.21
1268.98
1266.73
1264.46
1262.18
1259.89
1257.58
1255.28
1252.99
1250.72
1248.47
1246.29
1244.19
1242.27
1240.62
1239.39
1239.22
1240.46
1250.61
11463.2
2030.99
976.66
928.174
876.707
760.102
650.003
547.755
464.384
401.528
354.34
316.891
287.696
265.296
248.183
235.141
225.317
218.084
213.128
210.222
210.481
212.535
218.785
230.357
248.853
273.747
306.222
340.36
374.192
400.142
416.261
415.239
403.079
380.098
384.355
428.204
511.69
576.823
636.949
711.299
816.419
955.262
1075.32
1153.2
1220.17
1267.97
1285.46
1238.57
1198.63
1146.3
1094.34
1047.68
1006.92
973.419
945.774
923.743
906.026
892.662
882.193
875.618
870.58
867.698
866.387
865.726
865.351
866.393
867.807
869.74
872.091
874.74
877.627
880.725
883.986
887.392
890.911
894.531
898.231
902.001
905.827
909.698
913.607
917.541
921.496
925.46
929.43
933.397
937.356
941.3
945.224
949.111
952.968
956.788
960.572
964.314
968.017
971.682
975.316
978.928
982.524
986.114
989.697
993.256
996.742
1000.12
1003.38
1006.53
1009.57
1012.51
1015.32
1018.02
1020.61
1023.08
1025.44
1027.68
1029.8
1031.81
1033.7
1035.48
1037.15
1038.7
1040.13
1041.45
1042.64
1043.72
1044.69
1045.55
1046.29
1046.93
1047.46
1047.87
1048.18
1048.39
1048.49
1048.48
1048.36
1048.13
1047.77
1047.27
1046.63
1045.87
1045.02
1044.07
1043.04
1041.93
1040.73
1039.44
1038.08
1036.65
1035.13
1033.55
1031.9
1030.18
1028.4
1026.56
1024.68
1022.75
1020.77
1018.74
1016.68
1014.58
1012.45
1010.28
1008.09
1005.87
1003.63
1001.36
999.085
996.794
994.495
992.195
989.902
987.632
985.411
983.275
981.286
979.544
978.193
977.742
978.675
984.824
11463.2
2264.06
1403.74
1155.25
927.126
726.1
563.495
451.127
374.233
320.289
281.353
253.844
233.803
218.659
206.916
197.774
190.783
185.655
182.181
180.129
180.095
180.948
183.772
189.069
197.915
210.952
229.38
251.415
274.985
297.19
312.332
325.589
358.36
417.588
518.524
602.014
671.232
743.548
823.546
899.591
964.29
1020.28
1067.68
1093.01
1098.66
1060.63
1015.28
974.448
934.53
895.478
863.055
835.37
812.771
794.582
780.157
769.026
760.525
754.522
750.462
747.966
746.98
746.663
747.143
748.286
749.888
752.007
754.424
757.122
760.047
763.152
766.409
769.796
773.292
776.882
780.552
784.292
788.09
791.938
795.827
799.748
803.695
807.66
811.635
815.614
819.591
823.561
827.517
831.454
835.364
839.243
843.081
846.885
850.651
854.375
858.056
861.693
865.289
868.841
872.35
875.809
879.215
882.55
885.798
888.948
891.999
894.951
897.802
900.55
903.194
905.734
908.167
910.495
912.713
914.826
916.829
918.724
920.508
922.185
923.749
925.202
926.539
927.76
928.861
929.849
930.72
931.477
932.118
932.645
933.055
933.35
933.528
933.589
933.559
933.4
933.123
932.728
932.212
931.571
930.808
929.937
928.967
927.903
926.744
925.495
924.156
922.733
921.227
919.64
917.974
916.233
914.419
912.538
910.593
908.589
906.53
904.419
902.258
900.051
897.801
895.51
893.181
890.818
888.424
886.003
883.559
881.094
878.611
876.114
873.607
871.097
868.598
866.125
863.697
861.345
859.123
857.112
855.431
854.439
854.617
857.653
11463.2
2827.78
1689.67
1192.33
836.16
592.567
447.149
356.634
300.02
263.458
238.119
219.411
205.01
193.76
184.85
177.763
172.241
168.152
165.379
163.935
164.005
164.944
167.35
171.561
177.894
187.052
200.356
217.93
239.993
269.131
313.731
372.226
468.062
570.306
651.867
720.284
784.484
838.431
880.064
915.403
947.787
962.77
961.508
928.955
897.975
862.975
829.47
799.032
771.636
747.917
728.631
712.634
699.896
689.94
682.399
676.943
673.196
671.122
670.378
670.284
671.189
672.702
674.726
677.173
679.958
683.032
686.318
689.786
693.405
697.148
700.999
704.942
708.964
713.058
717.212
721.419
725.67
729.958
734.276
738.616
742.97
747.332
751.695
756.051
760.396
764.723
769.026
773.299
777.538
781.73
785.878
789.978
794.03
798.03
801.975
805.863
809.693
813.463
817.167
820.799
824.358
827.832
831.214
834.5
837.689
840.779
843.77
846.659
849.445
852.126
854.7
857.167
859.524
861.771
863.909
865.934
867.844
869.64
871.317
872.874
874.308
875.617
876.799
877.854
878.782
879.582
880.254
880.796
881.209
881.49
881.628
881.657
881.564
881.332
880.969
880.477
879.855
879.104
878.227
877.233
876.128
874.914
873.595
872.171
870.647
869.027
867.315
865.511
863.619
861.642
859.583
857.449
855.244
852.973
850.64
848.248
845.8
843.3
840.753
838.161
835.528
832.859
830.157
827.427
824.674
821.899
819.106
816.298
813.481
810.661
807.85
805.062
802.316
799.64
797.076
794.691
792.577
790.985
790.243
791.192
11463.2
3352.78
1751.97
1043.53
659.367
461.285
358.316
300.788
264.454
239.217
220.125
205.208
193.252
183.467
175.379
168.776
163.575
159.716
157.265
156.282
156.707
158.453
162.082
167.745
176.229
188.336
204.713
229.048
267.354
325.755
413.364
513.76
598.042
665.382
724.279
771.209
806.449
834.857
856.007
864.255
856.332
832.185
809.716
782.023
756.535
730.867
707.791
687.506
670.156
655.693
643.979
634.592
627.377
622.054
618.368
616.362
615.612
615.665
616.722
618.459
620.827
623.674
626.907
630.451
634.249
638.253
642.421
646.727
651.147
655.665
660.267
664.943
669.683
674.478
679.323
684.209
689.128
694.074
699.039
704.014
708.993
713.967
718.929
723.873
728.792
733.68
738.531
743.338
748.094
752.794
757.429
762.005
766.518
770.963
775.339
779.643
783.873
788.028
792.104
796.102
800.012
803.83
807.548
811.166
814.681
818.094
821.402
824.603
827.697
830.678
833.548
836.302
838.939
841.453
843.842
846.104
848.242
850.251
852.129
853.872
855.48
856.946
858.272
859.454
860.492
861.385
862.133
862.733
863.186
863.487
863.623
863.643
863.513
863.231
862.802
862.229
861.513
860.654
859.659
858.532
857.279
855.902
854.405
852.789
851.057
849.206
847.239
845.166
842.992
840.721
838.357
835.907
833.377
830.771
828.095
825.352
822.546
819.681
816.764
813.799
810.791
807.743
804.66
801.55
798.414
795.258
792.084
788.896
785.7
782.503
779.314
776.149
773.023
769.963
767.001
764.19
761.6
759.408
757.77
757.136
11463.2
3525.52
1574.86
828.038
519.678
381.334
310.781
269.255
242.286
223.416
209.338
197.92
188.039
179.399
172.011
165.926
161.261
158.232
156.881
157.107
158.797
162.364
168.467
177.581
192.25
215.078
248.286
299.849
376.262
461.688
536.514
598.832
653.132
698.693
734.497
763.375
780.266
785.392
776.099
757.962
739.876
718.852
699.231
678.981
660.2
642.471
626.978
613.696
602.586
593.511
586.327
580.874
577.003
574.749
573.842
573.778
574.8
576.579
579.082
582.173
585.757
589.741
594.051
598.625
603.415
608.382
613.493
618.726
624.06
629.481
634.975
640.532
646.143
651.8
657.497
663.225
668.977
674.743
680.516
686.286
692.046
697.787
703.5
709.18
714.818
720.409
725.948
731.424
736.833
742.163
747.413
752.584
757.673
762.678
767.595
772.422
777.159
781.804
786.36
790.819
795.175
799.424
803.562
807.588
811.501
815.299
818.982
822.547
825.993
829.317
832.515
835.586
838.527
841.333
844.004
846.538
848.931
851.18
853.281
855.231
857.026
858.662
860.139
861.453
862.603
863.588
864.406
865.057
865.54
865.842
865.967
865.951
865.763
865.405
864.881
864.193
863.344
862.337
861.176
859.866
858.411
856.815
855.082
853.215
851.217
849.092
846.846
844.483
842.006
839.421
836.733
833.947
831.071
828.111
825.072
821.958
818.774
815.527
812.223
808.867
805.464
802.02
798.54
795.029
791.495
787.939
784.365
780.779
777.185
773.593
770.011
766.453
762.934
759.476
756.107
752.868
749.81
747.03
744.606
742.653
11463.2
3410.86
1303.27
668.471
443.028
345.105
292.812
259.682
237.75
221.348
208.443
197.827
188.884
181.278
174.959
170.08
166.876
165.51
166.138
169.06
174.368
183.366
197.418
217.742
250.134
297.607
358.646
424.498
484.497
538.753
586.288
627.562
662.32
692.16
711.116
717.098
711.411
698.286
683.278
666.87
651.35
635.842
621.14
606.714
593.329
581.172
570.685
561.834
554.628
548.981
544.801
542.047
540.732
540.422
541.141
542.742
545.168
548.296
552.038
556.303
561.011
566.088
571.472
577.109
582.955
588.975
595.139
601.425
607.813
614.284
620.824
627.419
634.058
640.731
647.428
654.152
660.881
667.608
674.325
681.022
687.69
694.319
700.902
707.432
713.898
720.294
726.604
732.832
738.971
745.018
750.962
756.809
762.555
768.198
773.735
779.162
784.481
789.689
794.782
799.759
804.617
809.352
813.963
818.448
822.807
827.039
831.142
835.115
838.955
842.66
846.225
849.65
852.927
856.056
859.033
861.856
864.519
867.021
869.354
871.516
873.5
875.306
876.929
878.369
879.621
880.685
881.558
882.242
882.734
883.015
883.11
883.028
882.754
882.289
881.637
880.8
879.782
878.586
877.216
875.678
873.976
872.114
870.098
867.93
865.615
863.158
860.565
857.84
854.988
852.014
848.924
845.726
842.425
839.031
835.549
831.984
828.343
824.634
820.862
817.036
813.16
809.241
805.283
801.295
797.282
793.248
789.198
785.136
781.07
777.009
772.96
768.937
764.954
761.03
757.188
753.461
749.885
746.555
743.474
740.486
11463.2
3022.36
1051.96
563.409
397.053
321.33
280.272
255.153
237.436
224.536
214.285
205.679
198.377
192.429
188.011
185.791
185.802
188.877
194.886
204.572
218.668
239.484
268.404
306.575
351.359
398.644
445.529
489.452
529.21
565.022
596.142
623.813
645.104
653.826
654.022
646.099
635.134
622.415
609.97
597.962
586.642
575.58
564.886
554.576
545.084
536.659
529.525
523.708
519.197
515.949
514.077
513.387
513.613
514.855
516.995
519.956
523.655
528.009
532.938
538.371
544.238
550.482
557.041
563.863
570.905
578.131
585.509
593.022
600.652
608.361
616.131
623.947
631.791
639.643
647.477
655.251
663.011
670.76
678.487
686.181
693.83
701.425
708.957
716.419
723.802
731.099
738.306
745.411
752.4
759.257
765.981
772.572
779.032
785.359
791.552
797.608
803.528
809.312
814.959
820.471
825.845
831.079
836.173
841.125
845.935
850.602
855.125
859.504
863.734
867.814
871.739
875.505
879.108
882.544
885.809
888.901
891.814
894.544
897.083
899.428
901.573
903.516
905.251
906.778
908.093
909.195
910.082
910.755
911.207
911.423
911.438
911.242
910.831
910.208
909.375
908.335
907.093
905.652
904.017
902.193
900.186
898.001
895.643
893.116
890.425
887.577
884.577
881.431
878.145
874.724
871.176
867.505
863.723
859.837
855.854
851.781
847.625
843.397
839.103
834.752
830.349
825.901
821.413
816.893
812.348
807.783
803.202
798.614
794.025
789.443
784.879
780.343
775.849
771.413
767.054
762.799
758.674
754.752
751.012
747.06
11463.2
2560.05
900.006
518.252
380.91
315.958
280.477
259.532
245.731
235.656
227.759
221.496
216.794
214.356
214.191
217.351
224.124
233.954
246.567
263.826
286.809
314.995
347.131
381.534
416.316
450.201
482.342
511.987
538.477
562.784
584.275
596.035
599.176
596.88
590.915
582.183
572.888
563.696
555.046
546.767
538.742
530.808
523.068
515.71
509.047
503.298
498.603
495.009
492.56
491.377
491.136
491.932
493.658
496.303
499.802
504.094
509.1
514.748
520.969
527.7
534.882
542.48
550.428
558.66
567.13
575.792
584.596
593.472
602.388
611.389
620.462
629.588
638.745
647.902
657.043
666.172
675.252
684.278
693.244
702.126
710.917
719.611
728.201
736.683
745.049
753.289
761.393
769.348
777.148
784.783
792.246
799.541
806.674
813.644
820.449
827.091
833.57
839.891
846.052
852.059
857.907
863.598
869.128
874.5
879.712
884.764
889.658
894.389
898.958
903.359
907.588
911.64
915.511
919.195
922.691
925.991
929.093
931.986
934.669
937.132
939.372
941.381
943.16
944.704
946.011
947.078
947.906
948.492
948.826
948.914
948.767
948.382
947.76
946.904
945.815
944.498
942.958
941.198
939.224
937.043
934.659
932.079
929.308
926.353
923.218
919.911
916.438
912.805
909.02
905.089
901.019
896.816
892.492
888.054
883.51
878.871
874.145
869.342
864.473
859.543
854.561
849.531
844.461
839.359
834.23
829.082
823.922
818.757
813.596
808.448
803.321
798.226
793.176
788.184
783.266
778.445
773.741
769.212
764.831
759.998
11463.2
2124.28
784.67
479.121
366.981
314.288
286.457
270.039
259.451
252.159
247.079
244.153
243.365
245.154
250.045
258.297
269.436
283.012
300.031
320.342
343.312
368.074
393.683
419.295
444.266
467.9
489.784
510.465
529.559
542.879
548.432
549.486
548.024
543.715
538.038
531.749
525.574
519.618
513.871
508.181
502.494
496.823
491.33
486.23
481.765
478.114
475.386
473.785
473.218
473.607
474.989
477.332
480.594
484.746
489.742
495.597
502.17
509.391
517.194
525.509
534.248
543.277
552.61
562.27
572.226
582.437
592.863
603.481
614.262
625.131
636.043
646.966
657.883
668.728
679.47
690.088
700.56
710.868
721.008
730.993
740.833
750.532
760.089
769.505
778.773
787.882
796.816
805.562
814.109
822.442
830.561
838.47
846.179
853.689
861.002
868.119
875.046
881.787
888.346
894.727
900.931
906.958
912.807
918.479
923.974
929.295
934.44
939.41
944.2
948.808
953.227
957.452
961.478
965.299
968.913
972.312
975.49
978.438
981.152
983.624
985.848
987.816
989.528
990.979
992.167
993.09
993.749
994.137
994.255
994.102
993.687
993.011
992.075
990.884
989.44
987.748
985.813
983.639
981.234
978.604
975.755
972.693
969.426
965.959
962.3
958.455
954.433
950.24
945.884
941.373
936.713
931.914
926.984
921.931
916.766
911.503
906.151
900.721
895.222
889.662
884.049
878.388
872.686
866.951
861.19
855.411
849.623
843.836
838.059
832.3
826.567
820.871
815.222
809.632
804.117
798.696
793.384
788.228
783.215
777.558
11463.2
1948.96
759.299
474.297
369.232
322.111
298.025
284.556
276.533
271.872
269.882
269.788
272.279
277.283
284.945
295.092
307.433
321.98
338.356
356.19
375.043
394.295
413.258
431.461
448.987
466.073
482.129
494.875
502.126
505.409
506.572
506.128
504.05
500.934
497.402
493.718
490.055
486.367
482.633
478.806
474.945
471.15
467.608
464.511
462.044
460.462
459.84
460.126
461.479
463.895
467.272
471.579
476.774
482.81
489.587
496.921
504.98
513.76
523.206
533.257
543.857
554.99
566.578
578.552
590.861
603.458
616.279
629.273
642.408
655.563
668.65
681.6
694.338
706.848
719.104
731.086
742.781
754.189
765.324
776.217
786.904
797.406
807.734
817.897
827.888
837.691
847.282
856.637
865.735
874.567
883.129
891.436
899.5
907.327
914.922
922.287
929.431
936.36
943.087
949.612
955.944
962.081
968.025
973.778
979.341
984.717
989.906
994.908
999.72
1004.34
1008.75
1012.96
1016.96
1020.74
1024.29
1027.61
1030.69
1033.52
1036.1
1038.42
1040.46
1042.23
1043.71
1044.91
1045.83
1046.45
1046.79
1046.83
1046.59
1046.05
1045.22
1044.12
1042.74
1041.08
1039.15
1036.96
1034.51
1031.8
1028.85
1025.66
1022.24
1018.59
1014.73
1010.65
1006.38
1001.9
997.244
992.407
987.4
982.232
976.91
971.443
965.842
960.109
954.263
948.318
942.285
936.175
929.996
923.756
917.463
911.123
904.742
898.329
891.888
885.433
878.976
872.525
866.092
859.682
853.305
846.969
840.682
834.458
828.31
822.257
816.31
810.51
804.869
798.427
11463.2
1883.51
739.609
471.216
375.627
333.036
311.949
300.738
294.759
292.117
291.587
293.451
297.612
303.943
312.215
322.168
333.536
346.108
359.568
373.586
387.721
401.596
415.309
429.037
441.96
452.59
460.038
465.129
468.66
470.354
470.973
470.964
470.137
468.92
467.474
465.845
464.093
462.201
460.211
458.172
456.217
454.518
453.398
452.881
452.988
453.927
455.773
458.492
461.953
466.153
471.327
477.512
484.69
492.83
501.903
511.944
522.861
534.621
547.143
560.345
574.154
588.51
603.314
618.473
633.915
649.62
665.445
681.257
696.915
712.361
727.526
742.333
756.719
770.645
784.084
797.026
809.473
821.435
832.968
844.158
855.117
865.889
876.487
886.936
897.226
907.321
917.179
926.758
936.017
944.93
953.531
961.83
969.845
977.586
985.059
992.272
999.233
1005.96
1012.45
1018.74
1024.81
1030.69
1036.36
1041.83
1047.11
1052.2
1057.1
1061.81
1066.33
1070.65
1074.76
1078.66
1082.35
1085.8
1089.03
1092.02
1094.75
1097.21
1099.41
1101.33
1102.98
1104.31
1105.35
1106.09
1106.52
1106.63
1106.46
1105.95
1105.15
1104.04
1102.63
1100.93
1098.93
1096.64
1094.07
1091.22
1088.11
1084.73
1081.09
1077.21
1073.08
1068.73
1064.15
1059.36
1054.35
1049.15
1043.76
1038.18
1032.44
1026.53
1020.46
1014.25
1007.91
1001.43
994.847
988.167
981.402
974.561
967.653
960.685
953.665
946.6
939.497
932.362
925.201
918.032
910.869
903.721
896.597
889.503
882.447
875.437
868.48
861.589
854.779
848.068
841.467
835.003
828.734
821.543
11463.2
1845.7
732.856
475.947
385.764
346.151
326.743
316.485
311.266
309.189
308.991
311.398
315.815
321.96
329.426
337.911
347.189
357.088
367.339
377.732
388.227
398.974
408.897
417.241
424.105
429.764
434.529
438.27
441.251
443.554
445.441
447.038
448.45
449.658
450.643
451.417
452.044
452.553
453.027
453.529
454.145
454.89
455.614
456.972
459.106
462.226
466.494
472.048
478.782
486.73
495.849
506.157
517.63
530.212
543.866
558.566
574.239
590.921
608.379
626.428
644.938
663.771
682.801
701.895
720.925
739.72
758.222
776.362
794.046
811.184
827.686
843.448
858.439
872.64
886.073
898.76
910.721
921.928
932.531
942.715
952.838
962.901
972.853
982.771
992.622
1002.31
1011.75
1020.91
1029.74
1038.24
1046.4
1054.21
1061.69
1068.85
1075.7
1082.24
1088.49
1094.47
1100.2
1105.69
1110.96
1116.03
1120.89
1125.55
1130.02
1134.3
1138.4
1142.33
1146.07
1149.63
1153
1156.16
1159.11
1161.84
1164.36
1166.64
1168.64
1170.39
1171.86
1173.07
1174
1174.6
1174.89
1174.88
1174.54
1173.86
1172.89
1171.6
1169.99
1168.07
1165.85
1163.31
1160.47
1157.33
1153.91
1150.2
1146.22
1141.97
1137.46
1132.71
1127.71
1122.48
1117.02
1111.35
1105.47
1099.39
1093.13
1086.69
1080.07
1073.3
1066.38
1059.31
1052.13
1044.84
1037.46
1030
1022.46
1014.84
1007.15
999.412
991.621
983.789
975.925
968.033
960.119
952.208
944.313
936.441
928.599
920.793
913.031
905.321
897.667
890.084
882.591
875.206
867.935
860.797
853.898
845.992
11463.7
1818.26
729.917
483.504
396.249
357.91
339.359
329.223
323.815
321.578
321.231
323.262
327.053
332.205
338.28
345.042
352.352
360.124
368.193
376.275
384.025
391.292
398.167
404.797
410.966
416.816
422.365
427.641
432.659
437.394
441.847
445.939
449.522
452.595
455.524
458.351
461.179
464.035
467.037
470.246
473.801
477.815
482.576
488.163
494.74
502.524
511.793
522.698
534.954
548.607
563.637
580.128
598.094
617.27
637.472
658.564
680.335
702.513
724.974
747.573
770.129
792.49
814.507
836.066
857.059
877.411
897.063
915.988
934.144
951.49
967.945
983.33
997.742
1011.26
1023.95
1035.87
1047.06
1057.54
1067.35
1076.6
1085.45
1094
1102.42
1111.11
1119.93
1128.59
1136.98
1145.03
1152.76
1160.14
1167.14
1173.72
1179.9
1185.71
1191.15
1196.24
1201
1205.43
1209.6
1213.51
1217.21
1220.7
1223.99
1227.1
1230.03
1232.81
1235.43
1237.91
1240.24
1242.41
1244.43
1246.27
1247.93
1249.4
1250.69
1251.75
1252.54
1253.08
1253.39
1253.44
1253.27
1252.72
1251.84
1250.68
1249.21
1247.44
1245.36
1242.97
1240.26
1237.25
1233.93
1230.31
1226.39
1222.17
1217.68
1212.9
1207.87
1202.57
1197.03
1191.25
1185.23
1178.99
1172.53
1165.87
1159.01
1151.96
1144.73
1137.34
1129.78
1122.07
1114.23
1106.25
1098.15
1089.97
1081.71
1073.37
1064.96
1056.47
1047.92
1039.32
1030.67
1021.99
1013.28
1004.57
995.87
987.191
978.536
969.908
961.314
952.763
944.261
935.819
927.44
919.142
910.947
902.869
894.914
887.088
879.551
870.96
11462.8
1803.76
732.496
489.869
403.81
365.967
347.678
337.384
331.862
329.488
329.009
330.675
334.035
338.644
344.247
350.56
357.395
364.595
371.964
379.617
387.435
395.27
402.938
410.609
418.213
425.87
433.571
441.379
449.281
457.148
465.006
472.844
480.753
488.791
496.961
505.253
513.755
522.462
531.483
540.848
550.723
561.22
572.56
584.783
598.019
612.381
627.925
644.576
662.651
682.186
703.186
725.739
749.395
774.073
799.56
825.606
851.912
878.159
904.046
929.333
953.804
977.326
999.784
1021.11
1041.28
1060.29
1078.18
1095.01
1110.84
1125.75
1139.78
1153.02
1165.36
1176.92
1187.86
1198.25
1208.11
1217.45
1226.23
1234.48
1242.06
1249.21
1256.39
1263.7
1270.8
1277.55
1283.85
1289.71
1295.13
1300.11
1304.65
1308.73
1312.35
1315.65
1318.57
1321.18
1323.45
1325.44
1327.18
1328.73
1330.1
1331.32
1332.39
1333.34
1334.17
1334.91
1335.55
1336.1
1336.56
1336.93
1337.18
1337.3
1337.28
1337.11
1336.87
1336.37
1335.57
1334.62
1333.45
1332.06
1330.42
1328.49
1326.28
1323.79
1321.02
1317.97
1314.64
1311.03
1307.13
1302.94
1298.48
1293.74
1288.72
1283.44
1277.89
1272.11
1266.08
1259.81
1253.33
1246.62
1239.7
1232.58
1225.26
1217.76
1210.07
1202.22
1194.19
1186.02
1177.69
1169.23
1160.63
1151.9
1143.05
1134.1
1125.05
1115.92
1106.71
1097.43
1088.08
1078.68
1069.23
1059.76
1050.26
1040.76
1031.28
1021.83
1012.41
1003.01
993.643
984.326
975.066
965.875
956.778
947.788
938.911
930.159
921.537
913.044
904.882
895.672
11461.8
1792.18
735.067
492.149
408.194
371.286
353.84
343.972
339.293
337.63
337.798
340.407
344.644
350.136
356.539
364.021
372.539
381.435
390.694
400.77
411.747
423.556
435.555
448.196
461.469
475.464
490.113
505.444
521.332
537.835
554.942
572.599
590.778
609.398
628.276
647.272
666.331
685.344
704.255
723.087
741.992
761.028
780.279
799.853
819.875
840.472
861.779
884.052
907.986
933.163
959.349
986.135
1013.44
1041.06
1068.77
1096.18
1123
1148.85
1173.47
1196.53
1217.98
1237.69
1255.68
1271.92
1286.49
1299.52
1311.04
1321.3
1330.47
1338.7
1346.21
1353.4
1360.26
1366.89
1373.25
1379.32
1385.07
1390.33
1395.25
1400.06
1404.82
1409.91
1415.03
1419.62
1423.51
1426.8
1429.59
1431.91
1433.82
1435.32
1436.43
1437.07
1437.23
1437.33
1437.04
1436.62
1435.9
1434.98
1433.92
1432.75
1431.49
1430.17
1428.8
1427.4
1425.97
1424.53
1423.08
1421.62
1420.13
1418.61
1417.03
1415.37
1413.63
1411.79
1409.83
1407.73
1405.45
1403
1400.37