/*--------------------------------*- C++ -*----------------------------------*\
  =========                 |
  \\      /  F ield         | OpenFOAM: The Open Source CFD Toolbox
   \\    /   O peration     | Website:  https://openfoam.org
    \\  /    A nd           | Version:  13
     \\/     M anipulation  |
\*---------------------------------------------------------------------------*/
FoamFile
{
    format      ascii;
    class       volScalarField;
    location    "1400";
    object      p;
}
// * * * * * * * * * * * * * * * * * * * * * * * * * * * * * * * * * * * * * //

dimensions      [0 2 -2 0 0 0 0];

internalField   nonuniform List<scalar> 
12225
(
-4.26309
-5.11505
-5.60576
-5.74331
-5.858
-6.01856
-6.16188
-6.2602
-6.36597
-6.48852
-6.58964
-6.67363
-6.74969
-6.81599
-6.86971
-6.91868
-6.97249
-7.0462
-4.53767
-5.14963
-5.5829
-5.72171
-5.8391
-5.99764
-6.13797
-6.2312
-6.33806
-6.46666
-6.56251
-6.63873
-6.70658
-6.77088
-6.82792
-6.87783
-6.92735
-6.9651
-4.7551
-5.19575
-5.53367
-5.70391
-5.84155
-6.00703
-6.14738
-6.24272
-6.33342
-6.48006
-6.56983
-6.64143
-6.70423
-6.76186
-6.81283
-6.85698
-6.89622
-6.92432
-4.91109
-5.22443
-5.49995
-5.68924
-5.85377
-5.99708
-6.13619
-6.26488
-6.37036
-6.45794
-6.54333
-6.61755
-6.68191
-6.73981
-6.79128
-6.83573
-6.874
-6.90286
-5.03683
-5.28468
-5.52057
-5.71728
-5.86736
-5.99565
-6.13489
-6.27645
-6.37176
-6.42909
-6.51426
-6.59355
-6.66154
-6.72133
-6.77391
-6.81899
-6.85704
-6.88654
-5.14197
-5.32139
-5.54221
-5.7289
-5.86692
-5.99533
-6.13143
-6.26038
-6.35162
-6.42009
-6.50255
-6.58054
-6.64766
-6.70599
-6.7569
-6.80046
-6.83703
-6.86622
-5.24225
-5.36909
-5.56894
-5.74189
-5.87493
-6.00054
-6.12854
-6.24735
-6.33972
-6.4141
-6.4917
-6.5657
-6.63045
-6.68679
-6.73594
-6.77825
-6.81407
-6.84357
-5.33219
-5.42962
-5.60335
-5.76086
-5.88803
-6.00783
-6.12738
-6.23836
-6.32987
-6.40611
-6.48027
-6.55073
-6.61332
-6.66807
-6.71598
-6.75752
-6.79311
-6.82322
-5.41423
-5.49147
-5.63836
-5.78113
-5.90197
-6.01562
-6.12753
-6.23164
-6.32088
-6.39734
-6.46906
-6.53638
-6.59678
-6.65001
-6.69679
-6.73765
-6.77304
-6.80353
-5.48895
-5.55043
-5.67314
-5.80188
-5.91583
-6.02312
-6.1279
-6.2259
-6.31224
-6.38786
-6.45749
-6.5221
-6.58044
-6.63222
-6.67794
-6.71812
-6.7533
-6.78399
-5.55634
-5.60524
-5.70768
-5.82286
-5.92926
-6.03002
-6.12814
-6.22056
-6.30366
-6.37766
-6.4453
-6.50759
-6.56401
-6.6144
-6.65913
-6.69871
-6.73364
-6.76441
-5.61219
-5.65239
-5.73938
-5.84251
-5.94148
-6.03614
-6.12839
-6.2159
-6.29576
-6.36781
-6.43361
-6.494
-6.54882
-6.59802
-6.64194
-6.68099
-6.71567
-6.7464
-5.66253
-5.69619
-5.77022
-5.86211
-5.95364
-6.04228
-6.12889
-6.21164
-6.28816
-6.35796
-6.42188
-6.4805
-6.53381
-6.58192
-6.62504
-6.66362
-6.69802
-6.72871
-5.71396
-5.74187
-5.80384
-5.88422
-5.96751
-6.04947
-6.12995
-6.20747
-6.2801
-6.34708
-6.40871
-6.46534
-6.51705
-6.56392
-6.6062
-6.64418
-6.67832
-6.70886
-5.76441
-5.78734
-5.83872
-5.908
-5.98258
-6.05742
-6.13147
-6.20344
-6.2717
-6.33534
-6.39434
-6.44875
-6.49872
-6.54425
-6.58561
-6.62299
-6.65678
-6.68724
-5.81085
-5.8297
-5.87232
-5.93159
-5.9976
-6.06527
-6.13292
-6.1993
-6.26296
-6.32302
-6.37908
-6.43121
-6.47927
-6.52347
-6.56378
-6.60058
-6.63398
-6.66437
-5.8491
-5.86484
-5.90076
-5.95186
-6.01028
-6.07137
-6.13314
-6.19432
-6.25363
-6.31012
-6.36335
-6.41311
-6.45938
-6.50214
-6.54152
-6.57764
-6.61074
-6.641
-5.87298
-5.88674
-5.91833
-5.96391
-6.01685
-6.07293
-6.13015
-6.18723
-6.243
-6.29653
-6.34732
-6.39508
-6.43977
-6.48132
-6.51986
-6.55545
-6.5883
-6.61857
-5.87284
-5.88603
-5.91646
-5.96035
-6.0113
-6.06525
-6.12033
-6.17541
-6.22935
-6.28128
-6.33068
-6.37729
-6.42105
-6.46195
-6.50008
-6.53552
-6.56843
-6.59898
-5.84053
-5.85545
-5.88953
-5.93735
-5.99149
-6.04745
-6.10422
-6.16042
-6.21539
-6.26781
-6.31766
-6.36445
-6.40846
-6.44954
-6.4879
-6.52363
-6.55688
-6.5879
-5.79383
-5.81191
-5.8525
-5.90769
-5.96738
-6.02764
-6.08759
-6.14687
-6.20387
-6.2581
-6.30901
-6.35684
-6.40151
-6.44323
-6.4821
-6.51829
-6.55203
-6.58346
-5.73379
-5.75726
-5.80854
-5.87414
-5.94121
-6.00662
-6.07127
-6.13433
-6.1944
-6.25066
-6.30317
-6.35222
-6.3979
-6.44043
-6.47996
-6.51676
-6.55107
-6.58314
-5.66247
-5.69466
-5.7617
-5.84066
-5.9156
-5.98668
-6.05644
-6.1238
-6.18684
-6.24513
-6.29918
-6.34939
-6.39604
-6.43937
-6.47956
-6.51699
-6.55184
-6.5845
-5.5805
-5.6261
-5.71539
-5.80968
-5.89228
-5.9692
-6.04485
-6.1167
-6.1824
-6.24206
-6.29696
-6.34781
-6.39505
-6.43874
-6.47935
-6.51717
-6.5525
-6.58587
-5.48781
-5.55353
-5.67087
-5.78057
-5.86944
-5.95245
-6.03497
-6.11238
-6.1815
-6.24308
-6.29886
-6.35022
-6.39737
-6.44095
-6.48122
-6.51862
-6.55383
-6.58662
-5.3848
-5.48332
-5.63387
-5.75532
-5.84812
-5.93609
-6.0244
-6.10659
-6.17926
-6.24339
-6.30126
-6.35396
-6.40194
-6.44572
-6.48616
-6.52381
-6.55911
-6.59285
-5.27281
-5.41982
-5.60578
-5.73416
-5.8314
-5.92696
-6.02067
-6.10538
-6.17949
-6.24499
-6.30379
-6.35728
-6.40485
-6.44773
-6.48696
-6.52355
-6.55848
-6.59276
-5.1406
-5.36624
-5.58645
-5.71095
-5.81025
-5.91718
-6.01964
-6.10857
-6.18524
-6.2533
-6.31485
-6.37041
-6.41925
-6.4619
-6.49982
-6.53454
-6.56763
-6.60221
-4.93914
-5.35127
-5.60116
-5.70357
-5.79577
-5.90664
-6.01316
-6.10276
-6.17843
-6.24627
-6.30893
-6.36579
-6.41593
-6.45938
-6.49666
-6.52883
-6.55836
-6.5874
-4.68167
-5.27857
-5.58989
-5.70191
-5.80233
-5.92192
-6.03507
-6.12723
-6.20253
-6.26913
-6.3314
-6.38719
-6.4364
-6.47957
-6.51546
-6.54398
-6.56812
-6.58889
-7.49713
-7.49723
-7.49726
-7.49725
-7.49701
-7.496
-7.49375
-7.4906
-7.48749
-7.48532
-7.48515
-7.48728
-7.49134
-7.49661
-7.50236
-7.5079
-7.51268
-7.51626
-7.51853
-7.51973
-7.52013
-7.51992
-7.51932
-7.51854
-7.51784
-7.51733
-7.51702
-7.51681
-7.51657
-7.51621
-7.5157
-7.51506
-7.51427
-7.51325
-7.51195
-7.51047
-7.50916
-7.50862
-7.50931
-7.51108
-7.51328
-7.51524
-7.51681
-7.51832
-7.52016
-7.52271
-7.52629
-7.5303
-7.53374
-7.53643
-7.54074
-7.55082
-7.57055
-7.59965
-7.63657
-7.68111
-7.73425
-7.79573
-7.86339
-7.93546
-8.00943
-8.0836
-8.15613
-8.22572
-8.29148
-8.35289
-8.40938
-8.4609
-8.50737
-8.54887
-8.58546
-8.61724
-8.64429
-8.66663
-8.68434
-8.69737
-8.70581
-8.70958
-8.70877
-8.70322
-8.69307
-8.67818
-8.65871
-8.63449
-8.60576
-8.57242
-8.53474
-8.49265
-8.44625
-8.39532
-8.33966
-8.27928
-8.21429
-8.14476
-8.07074
-7.99222
-7.90923
-7.82173
-7.72978
-7.63345
-7.53299
-7.42847
-7.31961
-7.206
-7.08749
-6.96413
-6.83579
-6.70239
-6.56378
-6.4199
-6.27058
-6.11582
-5.95545
-5.78951
-5.61788
-5.44064
-5.25772
-5.06922
-4.87517
-4.67576
-4.47107
-4.26122
-4.04626
-3.82633
-3.60158
-3.37226
-3.1386
-2.90086
-2.65927
-2.41413
-2.16567
-1.91419
-1.65995
-1.40323
-1.14433
-0.88355
-0.62127
-0.357809
-0.0932528
0.172385
0.438811
0.70566
0.972641
1.23949
1.50594
1.77177
2.03674
2.30062
2.56321
2.82431
3.08371
3.34124
3.59671
3.84995
4.10081
4.34912
4.59474
4.83756
5.07747
5.31437
5.54819
5.77885
6.00628
6.23042
6.4512
6.66856
6.88242
7.09272
7.29939
7.50236
7.70156
7.89693
8.08837
8.27581
8.45915
8.63836
8.81353
8.98462
9.15471
9.31462
-7.49822
-7.49838
-7.49873
-7.49913
-7.49918
-7.49849
-7.49675
-7.49437
-7.49252
-7.49218
-7.49373
-7.49708
-7.5018
-7.50727
-7.51289
-7.51814
-7.52264
-7.52617
-7.52853
-7.52955
-7.52923
-7.52785
-7.52577
-7.52343
-7.52121
-7.5194
-7.51807
-7.51714
-7.51639
-7.51569
-7.51503
-7.51442
-7.51379
-7.51302
-7.51203
-7.51095
-7.51029
-7.51062
-7.51216
-7.51446
-7.51664
-7.51792
-7.51825
-7.51819
-7.51769
-7.51687
-7.51721
-7.52121
-7.52849
-7.53526
-7.54254
-7.5542
-7.57144
-7.59599
-7.63077
-7.67811
-7.73655
-7.80309
-7.87515
-7.95022
-8.02607
-8.1007
-8.17248
-8.24075
-8.30456
-8.36338
-8.41732
-8.46643
-8.51077
-8.55044
-8.58551
-8.61606
-8.64213
-8.66374
-8.6809
-8.69357
-8.70178
-8.70545
-8.7046
-8.69913
-8.68908
-8.67437
-8.65505
-8.63105
-8.60249
-8.56936
-8.53184
-8.48995
-8.44375
-8.39307
-8.33772
-8.27774
-8.21322
-8.14424
-8.07082
-7.99299
-7.91073
-7.82405
-7.73295
-7.63743
-7.53745
-7.43293
-7.32392
-7.21054
-7.09269
-6.9701
-6.84263
-6.71011
-6.57245
-6.42949
-6.28118
-6.12738
-5.96805
-5.8031
-5.63251
-5.45627
-5.27437
-5.08686
-4.89381
-4.69537
-4.49164
-4.28271
-4.06865
-3.84958
-3.62568
-3.39717
-3.16429
-2.92729
-2.68642
-2.44195
-2.19412
-1.94323
-1.68953
-1.4333
-1.17479
-0.914268
-0.651968
-0.388158
-0.12326
0.142362
0.408589
0.675248
0.942068
1.20879
1.47515
1.74092
2.00587
2.26977
2.5324
2.79357
3.05308
3.31074
3.56637
3.81981
4.07089
4.31944
4.56534
4.80844
5.04865
5.28586
5.51999
5.75097
5.97873
6.20321
6.42433
6.64204
6.85626
7.06692
7.27396
7.47732
7.67692
7.87271
8.0646
8.25259
8.43662
8.61663
8.7929
8.96464
9.13708
9.29649
-7.49942
-7.49942
-7.49946
-7.49956
-7.49966
-7.49967
-7.49977
-7.50048
-7.50228
-7.50539
-7.50965
-7.51475
-7.5203
-7.52588
-7.5311
-7.53566
-7.53935
-7.54204
-7.54365
-7.54412
-7.54344
-7.5417
-7.53905
-7.53568
-7.53181
-7.52767
-7.52355
-7.5197
-7.51634
-7.5136
-7.51149
-7.50982
-7.50835
-7.50696
-7.5059
-7.50566
-7.50678
-7.50946
-7.51312
-7.51643
-7.51787
-7.51667
-7.51407
-7.51219
-7.5122
-7.5132
-7.51515
-7.52105
-7.53194
-7.54699
-7.56684
-7.59238
-7.62396
-7.66221
-7.70773
-7.76053
-7.81925
-7.88209
-7.94742
-8.01374
-8.07984
-8.14464
-8.20721
-8.26702
-8.32355
-8.37642
-8.42548
-8.4706
-8.51174
-8.54885
-8.58191
-8.61089
-8.63576
-8.65648
-8.67299
-8.68524
-8.69318
-8.69675
-8.69588
-8.69052
-8.68063
-8.66615
-8.64708
-8.62338
-8.5951
-8.56226
-8.52499
-8.48335
-8.43741
-8.387
-8.33197
-8.27238
-8.20829
-8.1398
-8.0669
-7.98963
-7.90796
-7.82196
-7.7316
-7.63693
-7.53789
-7.43441
-7.32647
-7.21409
-7.09723
-6.97568
-6.8493
-6.71793
-6.58145
-6.43972
-6.29267
-6.14015
-5.98212
-5.81847
-5.64922
-5.47427
-5.29369
-5.10747
-4.91572
-4.71854
-4.51605
-4.30832
-4.09543
-3.87749
-3.6547
-3.42725
-3.19541
-2.9594
-2.71948
-2.47591
-2.22895
-1.97887
-1.72595
-1.47045
-1.21266
-0.952845
-0.691244
-0.428098
-0.163765
0.101414
0.367247
0.633536
0.900019
1.16644
1.43255
1.69812
1.9629
2.22667
2.48921
2.75033
3.00982
3.2675
3.52319
3.77671
4.0279
4.2766
4.52266
4.76596
5.00637
5.24379
5.47814
5.70934
5.93732
6.16201
6.38335
6.60126
6.81569
7.02655
7.23379
7.43733
7.63712
7.83311
8.02521
8.21337
8.39757
8.57784
8.75469
8.92683
9.10202
9.25712
-7.50042
-7.50018
-7.49984
-7.4998
-7.50074
-7.5031
-7.5068
-7.51154
-7.51698
-7.52282
-7.52879
-7.53466
-7.54021
-7.54526
-7.54963
-7.55318
-7.5558
-7.55742
-7.55802
-7.55755
-7.55602
-7.55349
-7.55003
-7.5457
-7.54061
-7.53485
-7.52859
-7.52205
-7.51557
-7.50948
-7.50408
-7.49954
-7.49603
-7.49384
-7.49352
-7.49559
-7.49972
-7.50458
-7.50852
-7.51051
-7.51046
-7.50921
-7.50843
-7.50941
-7.51286
-7.5193
-7.52947
-7.54432
-7.56449
-7.59
-7.62046
-7.65541
-7.69465
-7.73802
-7.78536
-7.83637
-7.89044
-7.94683
-8.00469
-8.06321
-8.12156
-8.17901
-8.2349
-8.28871
-8.33999
-8.38842
-8.43374
-8.47578
-8.51438
-8.54943
-8.58085
-8.60853
-8.63239
-8.65236
-8.66832
-8.6802
-8.68791
-8.69136
-8.69048
-8.68519
-8.67543
-8.66114
-8.64229
-8.61883
-8.59079
-8.55821
-8.52114
-8.47971
-8.43397
-8.38378
-8.32903
-8.26975
-8.20606
-8.13801
-8.06561
-7.98888
-7.90783
-7.82245
-7.73278
-7.63883
-7.54061
-7.43806
-7.33115
-7.21983
-7.104
-6.98352
-6.85825
-6.72804
-6.59275
-6.45225
-6.30644
-6.1552
-5.99846
-5.83611
-5.66814
-5.49449
-5.31517
-5.13021
-4.93971
-4.74376
-4.54245
-4.33585
-4.12405
-3.90717
-3.68541
-3.45897
-3.22809
-2.99301
-2.75398
-2.51125
-2.26509
-2.01577
-1.76357
-1.50875
-1.25159
-0.992389
-0.731379
-0.468822
-0.205027
0.059717
0.325176
0.59112
0.857291
1.12344
1.38931
1.65468
1.91929
2.18294
2.4454
2.70646
2.96593
3.22361
3.47934
3.73293
3.98422
4.23304
4.47925
4.72271
4.9633
5.20091
5.43545
5.66685
5.89502
6.1199
6.34142
6.55952
6.77412
6.98515
7.19254
7.39622
7.59615
7.79225
7.9845
8.17282
8.35725
8.53774
8.71494
8.88699
9.06295
9.21165
-7.50247
-7.50195
-7.50155
-7.50263
-7.50629
-7.5121
-7.51906
-7.52641
-7.53367
-7.54057
-7.54693
-7.55268
-7.55778
-7.56215
-7.56572
-7.5684
-7.57012
-7.57084
-7.57052
-7.56915
-7.56671
-7.56325
-7.55879
-7.55339
-7.54711
-7.54
-7.53213
-7.52365
-7.51481
-7.50599
-7.49774
-7.49068
-7.48559
-7.48337
-7.48451
-7.4881
-7.49239
-7.49629
-7.49935
-7.50149
-7.50323
-7.50546
-7.50945
-7.51622
-7.52686
-7.54211
-7.5621
-7.58638
-7.61451
-7.64624
-7.68112
-7.71893
-7.75958
-7.80302
-7.84912
-7.89765
-7.94818
-8.00022
-8.05315
-8.10641
-8.15942
-8.21163
-8.26257
-8.31182
-8.35899
-8.40378
-8.44596
-8.48529
-8.52162
-8.55478
-8.58463
-8.61104
-8.63388
-8.65303
-8.66837
-8.67977
-8.68712
-8.69031
-8.68926
-8.68386
-8.67404
-8.65974
-8.6409
-8.61749
-8.58949
-8.55695
-8.51992
-8.47851
-8.43279
-8.38263
-8.32797
-8.26883
-8.20536
-8.13757
-8.06554
-7.9892
-7.90865
-7.82382
-7.73479
-7.64154
-7.54411
-7.44244
-7.33646
-7.22612
-7.11127
-6.99182
-6.86758
-6.73846
-6.60426
-6.46492
-6.32023
-6.17017
-6.01456
-5.85339
-5.68652
-5.514
-5.33576
-5.1519
-4.96245
-4.76752
-4.56717
-4.36149
-4.15054
-3.9345
-3.71353
-3.48787
-3.25773
-3.02336
-2.785
-2.54292
-2.29737
-2.04862
-1.79696
-1.54264
-1.28597
-1.02721
-0.766611
-0.504461
-0.241042
0.0233754
0.288552
0.554234
0.820171
1.08611
1.3518
1.61701
1.8815
2.14505
2.40744
2.66846
2.92791
3.18561
3.44136
3.69501
3.94637
4.19529
4.44161
4.68519
4.92591
5.16367
5.39837
5.62992
5.85825
6.0833
6.30498
6.52323
6.73797
6.94915
7.15669
7.36053
7.5606
7.75686
7.94924
8.13772
8.32231
8.50287
8.68007
8.85146
9.02702
9.16873
-7.50636
-7.50551
-7.50579
-7.50963
-7.51649
-7.52461
-7.53295
-7.541
-7.54848
-7.55528
-7.56139
-7.56681
-7.57147
-7.57534
-7.57832
-7.58037
-7.58143
-7.58147
-7.58045
-7.57837
-7.57523
-7.57105
-7.56585
-7.55964
-7.55242
-7.54424
-7.5352
-7.52547
-7.51527
-7.50508
-7.49566
-7.48789
-7.48288
-7.48114
-7.48183
-7.48355
-7.48568
-7.48837
-7.49195
-7.49668
-7.50254
-7.51009
-7.52071
-7.53539
-7.55423
-7.57696
-7.60317
-7.63256
-7.66473
-7.69946
-7.73645
-7.77561
-7.81679
-7.85992
-7.90482
-7.9513
-7.99904
-8.04768
-8.09682
-8.14605
-8.19495
-8.24313
-8.29021
-8.33586
-8.37974
-8.4216
-8.46117
-8.49825
-8.53264
-8.56415
-8.59262
-8.61787
-8.63977
-8.65814
-8.67284
-8.68372
-8.69065
-8.69349
-8.69213
-8.68648
-8.67645
-8.66195
-8.64294
-8.61936
-8.59121
-8.5585
-8.5213
-8.47972
-8.43381
-8.38353
-8.32873
-8.26956
-8.20611
-8.13844
-8.06657
-7.99052
-7.91029
-7.82591
-7.73741
-7.6448
-7.54809
-7.4472
-7.34209
-7.23262
-7.11871
-7.00019
-6.87695
-6.74881
-6.61565
-6.47732
-6.33369
-6.18464
-6.03006
-5.86986
-5.70398
-5.53237
-5.35506
-5.17208
-4.98347
-4.78934
-4.58972
-4.3847
-4.17438
-3.95893
-3.73853
-3.5134
-3.28377
-3.04987
-2.81197
-2.57031
-2.32515
-2.07678
-1.82547
-1.57149
-1.31513
-1.05665
-0.796325
-0.534433
-0.27125
-0.00703914
0.257951
0.523461
0.78924
1.05503
1.3206
1.5857
1.85011
2.11359
2.37592
2.63691
2.89634
3.15403
3.4098
3.66348
3.91489
4.16386
4.41025
4.6539
4.8947
5.13255
5.36734
5.59899
5.82742
6.05256
6.27435
6.49271
6.70756
6.91884
7.12648
7.33041
7.53058
7.72692
7.91939
8.10793
8.29252
8.47297
8.64988
8.82032
8.99522
9.13007
-7.51142
-7.51084
-7.513
-7.51957
-7.528
-7.53655
-7.54475
-7.55243
-7.55954
-7.56604
-7.57189
-7.57702
-7.58137
-7.58487
-7.58745
-7.58907
-7.58967
-7.58924
-7.58774
-7.58518
-7.58157
-7.57693
-7.57123
-7.56441
-7.55649
-7.54762
-7.53797
-7.52779
-7.51738
-7.50732
-7.49847
-7.49176
-7.48745
-7.48473
-7.48297
-7.48237
-7.48348
-7.48679
-7.49215
-7.49964
-7.51
-7.52382
-7.54118
-7.56197
-7.586
-7.61302
-7.64268
-7.67476
-7.70906
-7.74539
-7.78355
-7.82338
-7.86471
-7.90743
-7.95135
-7.9963
-8.04203
-8.08829
-8.13476
-8.18116
-8.22718
-8.27248
-8.31678
-8.35978
-8.40122
-8.44083
-8.4784
-8.5137
-8.54653
-8.5767
-8.60401
-8.62829
-8.64937
-8.66703
-8.68114
-8.69151
-8.69798
-8.70042
-8.69868
-8.69267
-8.68228
-8.66744
-8.64808
-8.62416
-8.59564
-8.56257
-8.525
-8.48304
-8.43679
-8.38615
-8.33105
-8.27166
-8.20804
-8.14033
-8.06846
-7.99255
-7.91251
-7.82848
-7.74041
-7.64835
-7.55228
-7.45211
-7.34778
-7.23913
-7.12609
-7.00845
-6.88615
-6.75894
-6.62675
-6.48934
-6.34668
-6.19852
-6.04486
-5.88549
-5.72044
-5.5496
-5.37305
-5.19076
-5.00283
-4.80926
-4.61017
-4.40559
-4.1957
-3.98062
-3.76057
-3.53576
-3.30642
-3.0728
-2.83515
-2.59372
-2.34878
-2.10061
-1.84949
-1.59569
-1.3395
-1.08118
-0.821004
-0.559253
-0.2962
-0.0320993
0.232784
0.498198
0.763882
1.02959
1.29508
1.56012
1.82446
2.08789
2.35019
2.61114
2.87055
3.12823
3.38401
3.6377
3.88912
4.13811
4.38452
4.62819
4.86901
5.10688
5.34171
5.57339
5.80187
6.02707
6.24891
6.46731
6.6822
6.89352
7.10119
7.30516
7.50535
7.70172
7.8942
8.0827
8.26719
8.44739
8.62385
8.79323
8.96753
9.09591
-7.51559
-7.51606
-7.52068
-7.52852
-7.53682
-7.5448
-7.55242
-7.55967
-7.56647
-7.57274
-7.57837
-7.5833
-7.58744
-7.59071
-7.59306
-7.59443
-7.59478
-7.59409
-7.59234
-7.58953
-7.58568
-7.58077
-7.5747
-7.56749
-7.55936
-7.55049
-7.541
-7.53119
-7.52155
-7.51285
-7.50562
-7.4997
-7.49444
-7.48974
-7.48655
-7.48559
-7.48701
-7.49133
-7.49905
-7.51029
-7.52501
-7.54303
-7.56423
-7.58839
-7.61525
-7.64462
-7.67623
-7.70993
-7.74551
-7.78281
-7.82162
-7.86182
-7.90321
-7.94568
-7.98903
-8.03308
-8.07761
-8.12243
-8.16727
-8.21189
-8.25603
-8.29945
-8.34186
-8.38304
-8.42275
-8.46076
-8.49686
-8.53084
-8.56249
-8.59162
-8.61804
-8.64154
-8.66192
-8.679
-8.69257
-8.70245
-8.70847
-8.71047
-8.7083
-8.70184
-8.69099
-8.67568
-8.65582
-8.63138
-8.60233
-8.56871
-8.53056
-8.48804
-8.44122
-8.39007
-8.33451
-8.27467
-8.21075
-8.14279
-8.07083
-7.99488
-7.91498
-7.83116
-7.74345
-7.65187
-7.55636
-7.45685
-7.35321
-7.24535
-7.13311
-7.01635
-6.8949
-6.76861
-6.63729
-6.50079
-6.35897
-6.21167
-6.05878
-5.90018
-5.73581
-5.56564
-5.38969
-5.20797
-5.02052
-4.82737
-4.62861
-4.42432
-4.21465
-3.99977
-3.7799
-3.55523
-3.32601
-3.09249
-2.85492
-2.61356
-2.3687
-2.12059
-1.86953
-1.61579
-1.35965
-1.10138
-0.841254
-0.579553
-0.316542
-0.0524819
0.212361
0.477733
0.743376
1.00905
1.2745
1.5395
1.80381
2.0672
2.32947
2.59039
2.84978
3.10745
3.36323
3.61692
3.86833
4.11731
4.36369
4.60735
4.84816
5.08602
5.32083
5.55251
5.78099
6.0062
6.22804
6.44644
6.66133
6.87263
7.08029
7.28424
7.48441
7.68075
7.87318
8.06159
8.2459
8.42576
8.60172
8.77002
8.94379
9.06627
-7.51705
-7.51899
-7.52532
-7.53309
-7.54074
-7.54818
-7.55542
-7.5624
-7.56901
-7.57514
-7.58069
-7.58554
-7.58961
-7.59283
-7.59511
-7.59642
-7.59672
-7.59599
-7.59421
-7.59138
-7.5875
-7.58248
-7.57633
-7.56921
-7.56135
-7.5529
-7.54413
-7.53546
-7.52735
-7.52
-7.51324
-7.50678
-7.50066
-7.49548
-7.49228
-7.49178
-7.4945
-7.50082
-7.51081
-7.5243
-7.54121
-7.56131
-7.58438
-7.61022
-7.63858
-7.66926
-7.70206
-7.73679
-7.77325
-7.81129
-7.85071
-7.89136
-7.93305
-7.97562
-8.01887
-8.06263
-8.10669
-8.15084
-8.19487
-8.23854
-8.28164
-8.32394
-8.36522
-8.40526
-8.44386
-8.48081
-8.51592
-8.54898
-8.5798
-8.60818
-8.63392
-8.65682
-8.67666
-8.69324
-8.70635
-8.7158
-8.72137
-8.7229
-8.72023
-8.71326
-8.70186
-8.68595
-8.66547
-8.64037
-8.61062
-8.57626
-8.53737
-8.49408
-8.44656
-8.39467
-8.33847
-8.27804
-8.21367
-8.14532
-8.07315
-7.99705
-7.91718
-7.83349
-7.74609
-7.65491
-7.5599
-7.46099
-7.35801
-7.2509
-7.13943
-7.02352
-6.90289
-6.77748
-6.64699
-6.51136
-6.37032
-6.22382
-6.07161
-5.9137
-5.74991
-5.58032
-5.40486
-5.22358
-5.03646
-4.8436
-4.645
-4.44085
-4.23126
-4.01645
-3.79659
-3.57192
-3.34268
-3.10912
-2.8715
-2.6301
-2.38518
-2.13703
-1.88592
-1.63214
-1.37597
-1.11766
-0.857508
-0.595787
-0.332753
-0.0686825
0.196169
0.461536
0.727172
0.992826
1.25826
1.52324
1.78753
2.0509
2.31313
2.57403
2.83339
3.09103
3.34679
3.60047
3.85186
4.1008
4.34714
4.59075
4.83151
5.06933
5.30409
5.53573
5.76417
5.98935
6.21116
6.42952
6.64435
6.8556
7.0632
7.2671
7.46721
7.66349
7.85583
8.04409
8.22817
8.40765
8.58306
8.75031
8.92362
9.04086
-7.5144
-7.51771
-7.52448
-7.53178
-7.53903
-7.54623
-7.55333
-7.56023
-7.56683
-7.573
-7.57862
-7.58358
-7.58779
-7.59115
-7.59359
-7.59506
-7.59551
-7.59493
-7.59327
-7.59055
-7.58673
-7.58182
-7.5759
-7.56919
-7.56192
-7.55433
-7.54672
-7.53923
-7.53187
-7.52464
-7.51761
-7.5109
-7.50495
-7.50045
-7.4982
-7.49882
-7.50269
-7.51007
-7.52104
-7.53552
-7.55335
-7.57437
-7.59833
-7.62502
-7.65421
-7.68573
-7.71935
-7.75491
-7.79219
-7.83104
-7.87123
-7.9126
-7.95493
-7.99804
-8.04171
-8.08576
-8.12997
-8.17413
-8.21802
-8.26144
-8.30416
-8.34599
-8.38674
-8.4262
-8.46418
-8.50052
-8.53503
-8.56752
-8.59779
-8.62565
-8.6509
-8.67333
-8.69274
-8.7089
-8.72159
-8.73059
-8.73571
-8.73676
-8.73357
-8.72601
-8.71398
-8.69739
-8.67618
-8.65029
-8.6197
-8.58446
-8.54465
-8.50046
-8.45198
-8.39928
-8.34222
-8.2811
-8.21609
-8.14731
-8.07475
-7.99848
-7.91852
-7.83495
-7.74776
-7.65693
-7.5624
-7.46402
-7.36171
-7.2553
-7.14463
-7.0295
-6.90974
-6.78514
-6.6555
-6.52065
-6.3804
-6.2346
-6.08307
-5.92573
-5.76251
-5.59339
-5.41835
-5.23739
-5.05051
-4.85777
-4.65926
-4.45513
-4.24552
-4.03064
-3.81069
-3.58592
-3.35655
-3.12285
-2.88509
-2.64354
-2.39849
-2.15021
-1.89898
-1.64509
-1.38881
-1.13041
-0.87018
-0.608385
-0.345293
-0.0811743
0.18371
0.449099
0.714746
0.9804
1.24582
1.51078
1.77505
2.03839
2.3006
2.56146
2.82078
3.07839
3.33414
3.5878
3.83915
4.08803
4.3343
4.57783
4.81851
5.05624
5.29092
5.52248
5.75086
5.97599
6.19774
6.41603
6.63079
6.84195
7.04946
7.25327
7.45329
7.64948
7.8417
8.02978
8.2136
8.39266
8.5675
8.73375
8.9066
9.01929
-7.50599
-7.51011
-7.51674
-7.52391
-7.53124
-7.53856
-7.54578
-7.55284
-7.55964
-7.56604
-7.57194
-7.57719
-7.58169
-7.58534
-7.58806
-7.5898
-7.59051
-7.59016
-7.58875
-7.58626
-7.58274
-7.57824
-7.57291
-7.56696
-7.56053
-7.55372
-7.54664
-7.53937
-7.53199
-7.52459
-7.51746
-7.51098
-7.50561
-7.50184
-7.50034
-7.50164
-7.50613
-7.51403
-7.52545
-7.54035
-7.5586
-7.58003
-7.60442
-7.63162
-7.66139
-7.69359
-7.72799
-7.76443
-7.80267
-7.84254
-7.88379
-7.92622
-7.9696
-8.01372
-8.05833
-8.10322
-8.14814
-8.19289
-8.23722
-8.28094
-8.32385
-8.36574
-8.40641
-8.4457
-8.48344
-8.51947
-8.55362
-8.58573
-8.61563
-8.64312
-8.66802
-8.6901
-8.70916
-8.72496
-8.73728
-8.74588
-8.75054
-8.75107
-8.7473
-8.7391
-8.72636
-8.709
-8.68695
-8.66017
-8.62861
-8.59234
-8.55147
-8.50616
-8.45666
-8.40289
-8.3449
-8.28295
-8.21723
-8.1479
-8.07491
-7.9984
-7.91833
-7.83482
-7.74782
-7.65732
-7.56323
-7.4654
-7.36374
-7.25804
-7.14817
-7.03384
-6.91493
-6.79113
-6.66234
-6.52824
-6.38877
-6.24362
-6.09275
-5.93595
-5.77325
-5.60454
-5.42986
-5.24911
-5.06239
-4.86969
-4.67119
-4.46698
-4.25729
-4.04227
-3.82217
-3.59721
-3.36765
-3.13375
-2.89579
-2.65405
-2.4088
-2.16033
-1.90894
-1.65491
-1.39849
-1.13997
-0.879632
-0.617747
-0.354586
-0.0904125
0.174507
0.439922
0.705579
0.971236
1.23665
1.5016
1.76583
2.02915
2.29131
2.55213
2.8114
3.06896
3.32468
3.57832
3.82961
4.0784
4.32457
4.56799
4.80856
5.04619
5.28077
5.51223
5.74053
5.96559
6.18727
6.40546
6.62011
6.83116
7.03856
7.24226
7.44218
7.63825
7.83034
8.01822
8.20175
8.38037
8.55464
8.71994
8.89233
9.00118
-7.49037
-7.49469
-7.50142
-7.50918
-7.51711
-7.52486
-7.53243
-7.5398
-7.54694
-7.55374
-7.56006
-7.56574
-7.57064
-7.57467
-7.57777
-7.57988
-7.58097
-7.58103
-7.58005
-7.57806
-7.5751
-7.57124
-7.56659
-7.56121
-7.55524
-7.54873
-7.54176
-7.5344
-7.52686
-7.51937
-7.51227
-7.50589
-7.50072
-7.49729
-7.49617
-7.49783
-7.50263
-7.51079
-7.5224
-7.53745
-7.55584
-7.57746
-7.60213
-7.62973
-7.66006
-7.69298
-7.72828
-7.76578
-7.80523
-7.84642
-7.88908
-7.933
-7.97789
-8.02351
-8.06958
-8.11583
-8.16197
-8.20777
-8.253
-8.29743
-8.34086
-8.38311
-8.42401
-8.46339
-8.50111
-8.53704
-8.57102
-8.60291
-8.63255
-8.65978
-8.68439
-8.70618
-8.72492
-8.74039
-8.75234
-8.76052
-8.76467
-8.76458
-8.76012
-8.75116
-8.73761
-8.7194
-8.69643
-8.66863
-8.63599
-8.59857
-8.55646
-8.50995
-8.45924
-8.40439
-8.34541
-8.28254
-8.2161
-8.14614
-8.07275
-7.99595
-7.9158
-7.83234
-7.74554
-7.65537
-7.56171
-7.46447
-7.36346
-7.25853
-7.14944
-7.03597
-6.91789
-6.79496
-6.66696
-6.53367
-6.39491
-6.25046
-6.10018
-5.94396
-5.78173
-5.61343
-5.43902
-5.25847
-5.07182
-4.87915
-4.6806
-4.47632
-4.2665
-4.05132
-3.83104
-3.60588
-3.37611
-3.14199
-2.90382
-2.66186
-2.41639
-2.16773
-1.91617
-1.66198
-1.40541
-1.14677
-0.886324
-0.624352
-0.361124
-0.0969035
0.168049
0.433479
0.69914
0.964789
1.23019
1.4951
1.7593
2.02257
2.28469
2.54545
2.80464
3.06216
3.31788
3.57151
3.82271
4.07139
4.31743
4.56072
4.80117
5.03867
5.27313
5.50447
5.73268
5.95768
6.17927
6.39735
6.61187
6.8228
7.03008
7.23365
7.43346
7.62941
7.82136
8.00903
8.19225
8.37043
8.54415
8.70854
8.88044
8.98613
-7.46706
-7.47122
-7.47871
-7.48772
-7.49659
-7.50491
-7.5129
-7.52072
-7.5284
-7.53584
-7.54281
-7.54909
-7.55452
-7.55905
-7.56264
-7.56527
-7.5669
-7.56753
-7.56716
-7.56579
-7.56346
-7.56021
-7.55609
-7.55114
-7.54542
-7.53897
-7.53193
-7.52444
-7.51674
-7.50904
-7.50173
-7.49519
-7.48999
-7.4866
-7.48558
-7.4873
-7.49213
-7.50026
-7.51179
-7.52675
-7.54508
-7.56673
-7.59158
-7.61956
-7.6505
-7.68428
-7.72068
-7.75954
-7.80053
-7.84344
-7.88795
-7.93379
-7.98064
-8.0282
-8.07611
-8.12411
-8.17185
-8.21908
-8.26552
-8.31095
-8.35515
-8.39797
-8.43925
-8.47887
-8.51669
-8.5526
-8.58649
-8.61824
-8.64767
-8.6746
-8.69885
-8.72022
-8.73851
-8.75351
-8.76498
-8.77261
-8.77609
-8.77521
-8.76991
-8.7601
-8.74571
-8.72662
-8.7027
-8.67386
-8.64007
-8.6014
-8.55805
-8.51025
-8.45838
-8.4024
-8.34242
-8.27865
-8.21147
-8.14093
-8.06715
-7.9901
-7.9099
-7.8265
-7.73992
-7.6501
-7.55692
-7.4603
-7.36
-7.25589
-7.14762
-7.03506
-6.91783
-6.7958
-6.66861
-6.53618
-6.39814
-6.25443
-6.10477
-5.94916
-5.78741
-5.61952
-5.44535
-5.26499
-5.07841
-4.88578
-4.6872
-4.48287
-4.27293
-4.05763
-3.83717
-3.61183
-3.38186
-3.14755
-2.90916
-2.667
-2.42135
-2.17251
-1.92079
-1.66646
-1.40978
-1.15104
-0.890524
-0.628504
-0.365246
-0.101019
0.163925
0.429331
0.694955
0.960555
1.2259
1.49074
1.75487
2.01806
2.28009
2.54075
2.79986
3.05735
3.31315
3.56679
3.81789
4.06641
4.31231
4.55546
4.79577
5.03314
5.26748
5.49872
5.72687
5.95185
6.17336
6.3913
6.60568
6.81647
7.02362
7.22708
7.42676
7.62262
7.81443
8.00188
8.18477
8.36251
8.53568
8.69924
8.87059
8.9738
-7.43676
-7.44113
-7.44997
-7.46063
-7.47055
-7.47947
-7.48811
-7.49672
-7.50514
-7.51335
-7.52122
-7.52837
-7.53447
-7.53953
-7.54365
-7.54689
-7.54918
-7.5505
-7.55083
-7.55014
-7.54846
-7.54576
-7.54208
-7.53742
-7.53184
-7.5254
-7.51826
-7.51052
-7.50249
-7.49441
-7.48675
-7.47991
-7.47445
-7.47081
-7.46952
-7.47092
-7.47536
-7.48304
-7.49411
-7.50865
-7.52668
-7.54823
-7.57322
-7.6016
-7.63322
-7.66801
-7.70571
-7.74615
-7.789
-7.83398
-7.88073
-7.92892
-7.97813
-8.02801
-8.07815
-8.12822
-8.17783
-8.2267
-8.27453
-8.32109
-8.36615
-8.40958
-8.45123
-8.49101
-8.52883
-8.5646
-8.59823
-8.62962
-8.65861
-8.68502
-8.70866
-8.72932
-8.74688
-8.76118
-8.77196
-8.77882
-8.78139
-8.77949
-8.77324
-8.76265
-8.74758
-8.72781
-8.70317
-8.67342
-8.63857
-8.59878
-8.55432
-8.50533
-8.45235
-8.3953
-8.33429
-8.26964
-8.20165
-8.13051
-8.05627
-7.97899
-7.89868
-7.81534
-7.72894
-7.63943
-7.54674
-7.45071
-7.35117
-7.24785
-7.14051
-7.02882
-6.91251
-6.79134
-6.66506
-6.53343
-6.39621
-6.25323
-6.10429
-5.94928
-5.78807
-5.62057
-5.44672
-5.26653
-5.08007
-4.88749
-4.6889
-4.4845
-4.27446
-4.05899
-3.83834
-3.61279
-3.3826
-3.14808
-2.90953
-2.66724
-2.42152
-2.17263
-1.92086
-1.66648
-1.40977
-1.15104
-0.890565
-0.628611
-0.365453
-0.101349
0.163446
0.428685
0.694122
0.959521
1.22465
1.48927
1.75316
2.0161
2.27787
2.53828
2.79714
3.05445
3.31017
3.56371
3.81459
4.06292
4.30863
4.55161
4.79178
5.02901
5.26322
5.49434
5.72251
5.94758
6.16907
6.38687
6.60112
6.81178
7.01882
7.22217
7.42176
7.61757
7.8093
7.99652
8.17908
8.35639
8.52902
8.69179
8.86252
8.96393
-7.40191
-7.40713
-7.41785
-7.43055
-7.44169
-7.45116
-7.46015
-7.46945
-7.47897
-7.48832
-7.49722
-7.50536
-7.51227
-7.51785
-7.52246
-7.5263
-7.52928
-7.53133
-7.53238
-7.53241
-7.53135
-7.52919
-7.52592
-7.52154
-7.5161
-7.50962
-7.50229
-7.49424
-7.48581
-7.47727
-7.46911
-7.46173
-7.45567
-7.45135
-7.44927
-7.44978
-7.45323
-7.45989
-7.46998
-7.48367
-7.50104
-7.52222
-7.54715
-7.57588
-7.60826
-7.6442
-7.68344
-7.72576
-7.77079
-7.81821
-7.86757
-7.91843
-7.97035
-8.02282
-8.07544
-8.12771
-8.17929
-8.22977
-8.27887
-8.32632
-8.37197
-8.41565
-8.45731
-8.49686
-8.53428
-8.56952
-8.60252
-8.63319
-8.6614
-8.68695
-8.70956
-8.72904
-8.74542
-8.75866
-8.76846
-8.7743
-8.77562
-8.77237
-8.76511
-8.75397
-8.73862
-8.71864
-8.69374
-8.66365
-8.62847
-8.58846
-8.54352
-8.49444
-8.44086
-8.38319
-8.32128
-8.25568
-8.18677
-8.11483
-8.03992
-7.96215
-7.88152
-7.79803
-7.71164
-7.62231
-7.52999
-7.43445
-7.33555
-7.23293
-7.12641
-7.01553
-6.90012
-6.77978
-6.65439
-6.52356
-6.38716
-6.24489
-6.09667
-5.94224
-5.78154
-5.6144
-5.44084
-5.2608
-5.07445
-4.88186
-4.68325
-4.47872
-4.26853
-4.05284
-3.83196
-3.60614
-3.3757
-3.14095
-2.9022
-2.65977
-2.41396
-2.16502
-1.91319
-1.65877
-1.40209
-1.14341
-0.88302
-0.621197
-0.358208
-0.0943083
0.17025
0.435224
0.70037
0.965453
1.23024
1.4945
1.75801
2.02054
2.28188
2.54181
2.80012
3.05664
3.31123
3.56376
3.81405
4.06195
4.3073
4.54996
4.78982
5.02674
5.26065
5.4915
5.7195
5.94454
6.16595
6.38359
6.59768
6.80823
7.01518
7.21845
7.41797
7.61381
7.80557
7.99263
8.17488
8.35177
8.5239
8.68592
8.85599
8.95623
-7.36477
-7.37113
-7.38424
-7.399
-7.41068
-7.42047
-7.43044
-7.4409
-7.45144
-7.46175
-7.47162
-7.4807
-7.48841
-7.49466
-7.49992
-7.5045
-7.50826
-7.51114
-7.51302
-7.51384
-7.51354
-7.51205
-7.50932
-7.50532
-7.5001
-7.49365
-7.48619
-7.4778
-7.46888
-7.45964
-7.45063
-7.44215
-7.43483
-7.429
-7.42525
-7.42393
-7.42552
-7.4303
-7.43865
-7.45082
-7.467
-7.48741
-7.51209
-7.54115
-7.57439
-7.61176
-7.65287
-7.6975
-7.74513
-7.7954
-7.84766
-7.9015
-7.95621
-8.01136
-8.06632
-8.12069
-8.17393
-8.22571
-8.27566
-8.3236
-8.36933
-8.4128
-8.45395
-8.49281
-8.52935
-8.56364
-8.59561
-8.62527
-8.65242
-8.67671
-8.69765
-8.715
-8.72922
-8.74099
-8.75022
-8.75615
-8.75793
-8.7554
-8.74852
-8.73752
-8.72196
-8.70187
-8.67657
-8.64624
-8.61067
-8.57019
-8.52515
-8.47548
-8.4216
-8.36316
-8.30044
-8.23391
-8.16412
-8.09134
-8.01572
-7.93736
-7.85633
-7.77265
-7.68626
-7.59716
-7.5052
-7.41021
-7.31191
-7.21005
-7.1043
-6.99433
-6.87981
-6.76047
-6.63601
-6.50614
-6.3706
-6.22919
-6.08173
-5.928
-5.76786