/*--------------------------------*- C++ -*----------------------------------*\
  =========                 |
  \\      /  F ield         | OpenFOAM: The Open Source CFD Toolbox
   \\    /   O peration     | Website:  https://openfoam.org
    \\  /    A nd           | Version:  13
     \\/     M anipulation  |
\*---------------------------------------------------------------------------*/
FoamFile
{
    format      ascii;
    class       surfaceScalarField;
    location    "1400";
    object      phi;
}
// * * * * * * * * * * * * * * * * * * * * * * * * * * * * * * * * * * * * * //

dimensions      [0 3 -1 0 0 0 0];

internalField   nonuniform List<scalar> 
24170
(
3.04371e-06
1.44475e-07
2.88325e-06
1.60327e-07
2.73754e-06
1.45543e-07
2.6085e-06
1.29121e-07
2.4944e-06
1.13977e-07
2.39235e-06
1.02099e-07
2.30628e-06
8.60266e-08
2.23488e-06
7.12889e-08
2.17299e-06
6.17618e-08
2.11995e-06
5.29267e-08
2.07577e-06
4.40853e-08
2.04137e-06
3.43544e-08
2.01557e-06
2.57903e-08
1.99658e-06
1.90225e-08
1.9844e-06
1.22377e-08
1.97825e-06
6.22215e-09
1.97751e-06
7.96796e-10
-6.28311e-09
1.98383e-06
3.48314e-06
7.83998e-08
3.52228e-06
1.20518e-07
3.54944e-06
1.17892e-07
3.5604e-06
1.17741e-07
3.55569e-06
1.18296e-07
3.53859e-06
1.18898e-07
3.51326e-06
1.11142e-07
3.48589e-06
9.86437e-08
3.45985e-06
8.78656e-08
3.43303e-06
7.97818e-08
3.40615e-06
7.09673e-08
3.37697e-06
6.35244e-08
3.34434e-06
5.84176e-08
3.31098e-06
5.23978e-08
3.27834e-06
4.49207e-08
3.24741e-06
3.72091e-08
3.21909e-06
2.9196e-08
1.93922e-08
3.19353e-06
3.68537e-06
5.54396e-08
3.70512e-06
1.00933e-07
3.71779e-06
1.05247e-07
3.73244e-06
1.03243e-07
3.74807e-06
1.02651e-07
3.764e-06
1.03001e-07
3.77826e-06
9.68147e-08
3.79026e-06
8.65392e-08
3.79868e-06
7.94284e-08
3.80267e-06
7.57605e-08
3.80477e-06
6.8832e-08
3.8058e-06
6.24744e-08
3.80617e-06
5.80301e-08
3.80547e-06
5.30858e-08
3.80323e-06
4.7161e-08
3.79955e-06
4.08924e-08
3.79433e-06
3.43983e-08
2.65147e-08
3.78713e-06
3.93596e-06
4.48301e-08
3.94751e-06
8.91996e-08
3.95574e-06
9.68945e-08
3.96136e-06
9.74977e-08
3.96727e-06
9.65967e-08
3.97499e-06
9.51793e-08
3.9814e-06
9.02859e-08
3.98456e-06
8.3291e-08
3.99007e-06
7.38863e-08
3.99897e-06
6.68592e-08
4.00634e-06
6.14533e-08
4.01229e-06
5.65077e-08
4.01836e-06
5.19369e-08
4.02409e-06
4.73115e-08
4.0292e-06
4.2027e-08
4.03357e-06
3.64809e-08
4.03722e-06
3.07255e-08
2.4627e-08
4.03911e-06
4.21602e-06
3.5868e-08
4.22704e-06
7.83437e-08
4.23385e-06
9.02026e-08
4.239e-06
9.25066e-08
4.24403e-06
9.16104e-08
4.24967e-06
8.95681e-08
4.25471e-06
8.52039e-08
4.25871e-06
7.92197e-08
4.26176e-06
7.0842e-08
4.26481e-06
6.38108e-08
4.26771e-06
5.85349e-08
4.27078e-06
5.34275e-08
4.27407e-06
4.86301e-08
4.27746e-06
4.39131e-08
4.28065e-06
3.8835e-08
4.28348e-06
3.36284e-08
4.28583e-06
2.83463e-08
2.31337e-08
4.28724e-06
4.51657e-06
2.83729e-08
4.52711e-06
6.78075e-08
4.5354e-06
8.18813e-08
4.54126e-06
8.66038e-08
4.54651e-06
8.62856e-08
4.55175e-06
8.42665e-08
4.55655e-06
8.03186e-08
4.56084e-06
7.48429e-08
4.56419e-06
6.74375e-08
4.56698e-06
6.09686e-08
4.56955e-06
5.59372e-08
4.57213e-06
5.08071e-08
4.57477e-06
4.5961e-08
4.57739e-06
4.12693e-08
4.57979e-06
3.64018e-08
4.58188e-06
3.15002e-08
4.58349e-06
2.66987e-08
2.22724e-08
4.58434e-06
4.83788e-06
2.31733e-08
4.84685e-06
5.90379e-08
4.85458e-06
7.43447e-08
4.86163e-06
7.96751e-08
4.86784e-06
8.01108e-08
4.87358e-06
7.85351e-08
4.87871e-06
7.51533e-08
4.88327e-06
7.02483e-08
4.88699e-06
6.37267e-08
4.89018e-06
5.77849e-08
4.89315e-06
5.29594e-08
4.89588e-06
4.80628e-08
4.89852e-06
4.33173e-08
4.90107e-06
3.8725e-08
4.90336e-06
3.4105e-08
4.90531e-06
2.95398e-08
4.90682e-06
2.51818e-08
2.12553e-08
4.90773e-06
5.18339e-06
1.93724e-08
5.1913e-06
5.11481e-08
5.19898e-06
6.66652e-08
5.20617e-06
7.24494e-08
5.21257e-06
7.36564e-08
5.21847e-06
7.25741e-08
5.22386e-06
6.9693e-08
5.22872e-06
6.53302e-08
5.23273e-06
5.9668e-08
5.23618e-06
5.43021e-08
5.23943e-06
4.96686e-08
5.24243e-06
4.50261e-08
5.24524e-06
4.04867e-08
5.24785e-06
3.60949e-08
5.25018e-06
3.17613e-08
5.25215e-06
2.75505e-08
5.25371e-06
2.35625e-08
2.00773e-08
5.25486e-06
5.55433e-06
1.63665e-08
5.5614e-06
4.41687e-08
5.569e-06
5.92034e-08
5.57616e-06
6.53594e-08
5.58268e-06
6.71638e-08
5.58871e-06
6.65328e-08
5.59427e-06
6.4117e-08
5.5993e-06
6.02824e-08
5.60358e-06
5.53836e-08
5.60733e-06
5.05557e-08
5.61083e-06
4.61621e-08
5.61405e-06
4.17985e-08
5.61702e-06
3.7512e-08
5.61975e-06
3.33656e-08
5.62217e-06
2.93309e-08
5.62425e-06
2.5457e-08
5.62596e-06
2.18387e-08
1.86376e-08
5.6273e-06
5.95226e-06
1.38863e-08
5.95855e-06
3.79015e-08
5.96588e-06
5.18788e-08
5.97296e-06
5.82406e-08
5.97959e-06
6.04862e-08
5.98579e-06
6.02731e-08
5.99154e-06
5.83144e-08
5.99676e-06
5.50081e-08
6.00132e-06
5.07863e-08
6.00536e-06
4.64766e-08
6.0091e-06
4.23885e-08
6.01254e-06
3.83306e-08
6.01569e-06
3.43454e-08
6.01855e-06
3.04824e-08
6.02111e-06
2.67623e-08
6.02333e-06
2.32242e-08
6.02519e-06
1.99279e-08
1.70347e-08
6.02675e-06
6.37892e-06
1.17704e-08
6.38451e-06
3.23547e-08
6.39144e-06
4.50207e-08
6.39838e-06
5.13363e-08
6.40506e-06
5.38082e-08
6.41139e-06
5.39128e-08
6.41732e-06
5.23567e-08
6.42275e-06
4.95485e-08
6.42759e-06
4.59317e-08
6.43193e-06
4.21224e-08
6.43592e-06
3.83758e-08
6.43958e-06
3.46539e-08
6.44293e-06
3.09831e-08
6.44596e-06
2.74409e-08
6.44868e-06
2.40375e-08
6.45106e-06
2.08309e-08
6.45311e-06
1.7862e-08
1.52219e-08
6.45486e-06
5.74242e-06
1.01945e-08
5.74665e-06
2.81383e-08
5.75214e-06
3.9552e-08
5.75784e-06
4.56251e-08
5.76346e-06
4.81648e-08
5.76887e-06
4.84676e-08
5.77398e-06
4.72065e-08
5.77872e-06
4.47892e-08
5.783e-06
4.16344e-08
5.78688e-06
3.82271e-08
5.79044e-06
3.4798e-08
5.79371e-06
3.13689e-08
5.7967e-06
2.8008e-08
5.7994e-06
2.47256e-08
5.80183e-06
2.16186e-08
5.80398e-06
1.86722e-08
5.80585e-06
1.5962e-08
1.35368e-08
5.80748e-06
6.99978e-06
8.56512e-09
7.00417e-06
2.37545e-08
7.01003e-06
3.37008e-08
7.01633e-06
3.9326e-08
7.02267e-06
4.18018e-08
7.02887e-06
4.22382e-08
7.03478e-06
4.1251e-08
7.04032e-06
3.92208e-08
7.0454e-06
3.65301e-08
7.05005e-06
3.35512e-08
7.05434e-06
3.04942e-08
7.05828e-06
2.74292e-08
7.06187e-06
2.43916e-08
7.06515e-06
2.14688e-08
7.06809e-06
1.86584e-08
7.07073e-06
1.60465e-08
7.07303e-06
1.3599e-08
1.14674e-08
7.07509e-06
8.53251e-06
6.90943e-09
8.53698e-06
1.92792e-08
8.54314e-06
2.75574e-08
8.54998e-06
3.24826e-08
8.55702e-06
3.47529e-08
8.564e-06
3.52361e-08
8.57075e-06
3.44783e-08
8.57713e-06
3.2817e-08
8.58308e-06
3.05701e-08
8.58858e-06
2.80436e-08
8.59366e-06
2.53895e-08
8.59834e-06
2.27262e-08
8.60265e-06
2.00857e-08
8.60657e-06
1.75356e-08
8.61013e-06
1.51056e-08
8.61331e-06
1.28318e-08
8.61618e-06
1.07394e-08
8.86853e-09
8.61868e-06
1.04009e-05
5.22831e-09
1.04054e-05
1.47789e-08
1.04118e-05
2.11658e-08
1.04191e-05
2.5154e-08
1.04268e-05
2.70391e-08
1.04346e-05
2.74663e-08
1.04422e-05
2.68717e-08
1.04495e-05
2.55325e-08
1.04564e-05
2.37165e-08
1.04627e-05
2.16164e-08
1.04687e-05
1.94278e-08
1.04742e-05
1.71809e-08
1.04793e-05
1.49979e-08
1.0484e-05
1.28554e-08
1.04882e-05
1.0863e-08
1.0492e-05
8.96745e-09
1.04955e-05
7.26789e-09
5.73161e-09
1.04986e-05
1.26785e-05
3.55032e-09
1.2683e-05
1.02243e-08
1.26896e-05
1.45767e-08
1.26974e-05
1.73572e-08
1.27058e-05
1.86654e-08
1.27144e-05
1.88963e-08
1.27229e-05
1.83714e-08
1.27311e-05
1.73001e-08
1.27389e-05
1.58562e-08
1.27464e-05
1.42179e-08
1.27532e-05
1.24707e-08
1.27597e-05
1.07272e-08
1.27656e-05
8.99468e-09
1.27712e-05
7.35963e-09
1.27762e-05
5.79466e-09
1.27808e-05
4.37832e-09
1.27849e-05
3.05608e-09
1.93549e-09
1.27888e-05
1.54549e-05
1.85048e-09
1.54595e-05
5.56599e-09
1.54664e-05
7.69367e-09
1.54747e-05
9.03146e-09
1.54839e-05
9.54262e-09
1.54933e-05
9.42229e-09
1.55028e-05
8.8587e-09
1.55121e-05
7.97479e-09
1.55211e-05
6.87882e-09
1.55296e-05
5.66936e-09
1.55376e-05
4.41654e-09
1.55451e-05
3.17611e-09
1.55521e-05
1.97549e-09
1.55586e-05
8.47605e-10
1.55646e-05
-1.99296e-10
1.55701e-05
-1.14496e-09
1.55752e-05
-1.99363e-09
-2.71613e-09
1.55798e-05
1.88394e-05
6.66102e-11
1.88444e-05
5.62723e-10
1.88519e-05
2.43143e-10
1.8861e-05
-1.07397e-10
1.88711e-05
-6.02262e-10
1.88817e-05
-1.22876e-09
1.88925e-05
-1.93758e-09
1.89031e-05
-2.69781e-09
1.89134e-05
-3.48014e-09
1.89233e-05
-4.25227e-09
1.89327e-05
-4.9939e-09
1.89415e-05
-5.68596e-09
1.89498e-05
-6.3189e-09
1.89575e-05
-6.88264e-09
1.89646e-05
-7.37318e-09
1.89712e-05
-7.7883e-09
1.89774e-05
-8.12618e-09
-8.383e-09
1.8983e-05
2.29654e-05
-2.00262e-09
2.29713e-05
-5.32224e-09
2.29799e-05
-8.48059e-09
2.29906e-05
-1.07932e-08
2.30024e-05
-1.24803e-08
2.30149e-05
-1.37277e-08
2.30276e-05
-1.46394e-08
2.30401e-05
-1.52918e-08
2.30524e-05
-1.57437e-08
2.30641e-05
-1.60354e-08
2.30753e-05
-1.62139e-08
2.30858e-05
-1.62874e-08
2.30958e-05
-1.62893e-08
2.3105e-05
-1.62119e-08
2.31138e-05
-1.6084e-08
2.31218e-05
-1.58943e-08
2.31294e-05
-1.56623e-08
-1.53808e-08
2.31363e-05
1.68124e-05
-3.72906e-09
1.68172e-05
-1.01485e-08
1.68242e-05
-1.54726e-08
1.68325e-05
-1.91426e-08
1.68416e-05
-2.16021e-08
1.6851e-05
-2.3218e-08
1.68606e-05
-2.42141e-08
1.687e-05
-2.47326e-08
1.68791e-05
-2.48824e-08
1.68878e-05
-2.48043e-08
1.68961e-05
-2.45265e-08
1.69039e-05
-2.4158e-08
1.69113e-05
-2.36663e-08
1.69181e-05
-2.31502e-08
1.69247e-05
-2.25488e-08
1.69306e-05
-2.19542e-08
1.69363e-05
-2.12881e-08
-2.06478e-08
1.69415e-05
1.46364e-05
-5.56406e-09
1.46414e-05
-1.51951e-08
1.46484e-05
-2.24903e-08
1.46565e-05
-2.72651e-08
1.46651e-05
-3.02645e-08
1.46739e-05
-3.21132e-08
1.46827e-05
-3.30711e-08
1.46913e-05
-3.33632e-08
1.46996e-05
-3.31865e-08
1.47074e-05
-3.26885e-08
1.47148e-05
-3.19994e-08
1.47219e-05
-3.11651e-08
1.47284e-05
-3.0261e-08
1.47345e-05
-2.92976e-08
1.47402e-05
-2.83218e-08
1.47456e-05
-2.7321e-08
1.47506e-05
-2.63248e-08
-2.53184e-08
1.47553e-05
1.27422e-05
-7.6749e-09
1.27478e-05
-2.07346e-08
1.2755e-05
-2.98456e-08
1.27631e-05
-3.53442e-08
1.27714e-05
-3.86682e-08
1.27798e-05
-4.05624e-08
1.27881e-05
-4.13871e-08
1.27961e-05
-4.13686e-08
1.28036e-05
-4.07853e-08
1.28108e-05
-3.98557e-08
1.28174e-05
-3.87151e-08
1.28237e-05
-3.74437e-08
1.28295e-05
-3.61214e-08
1.28349e-05
-3.47595e-08
1.284e-05
-3.34241e-08
1.28447e-05
-3.20837e-08
1.28492e-05
-3.07732e-08
-2.94862e-08
1.28533e-05
1.10935e-05
-1.027e-08
1.10998e-05
-2.70552e-08
1.11075e-05
-3.75353e-08
1.11156e-05
-4.34159e-08
1.11237e-05
-4.68361e-08
1.11318e-05
-4.86708e-08
1.11395e-05
-4.91929e-08
1.11469e-05
-4.87551e-08
1.11538e-05
-4.77032e-08
1.11602e-05
-4.63004e-08
1.11662e-05
-4.47039e-08
1.11717e-05
-4.30037e-08
1.11768e-05
-4.12531e-08
1.11815e-05
-3.95449e-08
1.11859e-05
-3.78515e-08
1.119e-05
-3.62396e-08
1.11939e-05
-3.46404e-08
-3.31365e-08
1.11975e-05
9.65855e-06
-1.36017e-08
9.66587e-06
-3.44357e-08
9.67395e-06
-4.56665e-08
9.68197e-06
-5.14544e-08
9.68991e-06
-5.48149e-08
9.69759e-06
-5.635e-08
9.70482e-06
-5.64518e-08
9.71153e-06
-5.54878e-08
9.7177e-06
-5.39045e-08
9.72338e-06
-5.20172e-08
9.72863e-06
-4.99682e-08
9.73345e-06
-4.78416e-08
9.73787e-06
-4.57202e-08
9.74198e-06
-4.36567e-08
9.74578e-06
-4.16863e-08
9.74935e-06
-3.98155e-08
9.75271e-06
-3.80077e-08
-3.63566e-08
9.75592e-06
8.40975e-06
-1.80143e-08
8.41821e-06
-4.28797e-08
8.42661e-06
-5.40612e-08
8.43456e-06
-5.94148e-08
8.44229e-06
-6.25199e-08
8.44962e-06
-6.36997e-08
8.45636e-06
-6.3219e-08
8.46249e-06
-6.16361e-08
8.46806e-06
-5.94897e-08
8.47314e-06
-5.71025e-08
8.47777e-06
-5.46185e-08
8.48199e-06
-5.20874e-08
8.48585e-06
-4.96e-08
8.48941e-06
-4.72339e-08
8.49269e-06
-4.49877e-08
8.49578e-06
-4.28919e-08
8.49865e-06
-4.09314e-08
-3.9107e-08
8.50142e-06
7.32319e-06
-2.39182e-08
7.33295e-06
-5.26905e-08
7.3417e-06
-6.28263e-08
7.34972e-06
-6.7428e-08
7.3574e-06
-7.02094e-08
7.36457e-06
-7.08691e-08
7.37101e-06
-6.96821e-08
7.3768e-06
-6.74482e-08
7.38204e-06
-6.47524e-08
7.38677e-06
-6.18563e-08
7.39103e-06
-5.88871e-08
7.39487e-06
-5.59426e-08
7.39835e-06
-5.31056e-08
7.40153e-06
-5.0431e-08
7.40445e-06
-4.79299e-08
7.40718e-06
-4.56424e-08
7.40978e-06
-4.35348e-08
-4.1634e-08
7.41226e-06
6.37831e-06
-3.21713e-08
6.39013e-06
-6.45008e-08
6.39999e-06
-7.26787e-08
6.40905e-06
-7.64921e-08
6.41766e-06
-7.87917e-08
6.42544e-06
-7.86423e-08
6.43231e-06
-7.65692e-08
6.43847e-06
-7.36333e-08
6.44404e-06
-7.03407e-08
6.44906e-06
-6.68918e-08
6.45363e-06
-6.34517e-08
6.45777e-06
-6.01041e-08
6.46156e-06
-5.69038e-08
6.46503e-06
-5.39163e-08
6.46826e-06
-5.1173e-08
6.47135e-06
-4.87413e-08
6.47438e-06
-4.65945e-08
-4.46807e-08
6.47739e-06
5.56092e-06
-4.76288e-08
5.57763e-06
-8.12052e-08
5.59217e-06
-8.72152e-08
5.60607e-06
-9.03733e-08
5.61885e-06
-9.15756e-08
5.63022e-06
-8.99928e-08
5.64037e-06
-8.67449e-08
5.64945e-06
-8.27336e-08
5.65755e-06
-7.8453e-08
5.66475e-06
-7.40985e-08
5.67111e-06
-6.98117e-08
5.67662e-06
-6.56185e-08
5.68133e-06
-6.1629e-08
5.68536e-06
-5.79555e-08
5.68879e-06
-5.46235e-08
5.69174e-06
-5.17085e-08
5.69438e-06
-4.92486e-08
-4.7592e-08
5.69726e-06
4.87754e-06
-9.75634e-08
4.91395e-06
-1.17611e-07
4.93974e-06
-1.12993e-07
4.95649e-06
-1.07122e-07
4.96518e-06
-1.00257e-07
4.96736e-06
-9.21704e-08
4.96433e-06
-8.3733e-08
4.95704e-06
-7.54691e-08
4.94639e-06
-6.78215e-08
4.93335e-06
-6.10524e-08
4.91852e-06
-5.49863e-08
4.90236e-06
-4.94626e-08
4.88524e-06
-4.45234e-08
4.8675e-06
-4.02339e-08
4.84946e-06
-3.66041e-08
4.83146e-06
-3.37186e-08
4.81377e-06
-3.15847e-08
-3.10307e-08
4.79717e-06
4.10511e-06
3.9875e-06
3.87451e-06
3.76739e-06
3.66713e-06
3.57496e-06
3.49123e-06
3.41575e-06
3.34793e-06
3.28688e-06
3.23189e-06
3.18243e-06
3.1379e-06
3.09766e-06
3.06106e-06
3.02733e-06
2.99574e-06
2.96471e-06
-7.66816e-09
7.61772e-09
-2.08747e-08
1.31302e-08
-3.55811e-08
1.46172e-08
-4.85731e-08
1.29021e-08
-5.51408e-08
6.46632e-09
-4.94995e-08
-5.73997e-09
-2.91043e-08
-2.05001e-08
4.234e-09
-3.34227e-08
4.67895e-08
-4.26606e-08
9.42377e-08
-4.74811e-08
1.42036e-07
-4.78852e-08
1.87178e-07
-4.51485e-08
2.27412e-07
-4.03186e-08
2.61578e-07
-3.41683e-08
2.88737e-07
-2.72571e-08
3.08632e-07
-1.99017e-08
3.20774e-07
-1.22735e-08
3.25131e-07
-4.36014e-09
3.21188e-07
3.78995e-09
3.09263e-07
1.1932e-08
2.89425e-07
1.96442e-08
2.62866e-07
2.65775e-08
2.30302e-07
3.23312e-08
1.93779e-07
3.65247e-08
1.54786e-07
3.8701e-08
1.16152e-07
3.85517e-08
7.98148e-08
3.59109e-08
4.85629e-08
3.10345e-08
2.34144e-08
2.45755e-08
5.44846e-09
1.75992e-08
-6.35093e-09
1.11018e-08
-1.22197e-08
5.45096e-09
-1.29428e-08
3.28442e-11
-7.37697e-09
-5.94234e-09
4.95095e-09
-1.30012e-08
2.56907e-08
-2.1057e-08
5.36837e-08
-2.84875e-08
8.552e-08
-3.21336e-08
1.15529e-07
-3.03551e-08
1.39071e-07
-2.38165e-08
1.53348e-07
-1.4552e-08
1.5892e-07
-5.77402e-09
1.58787e-07
-1.03238e-10
1.56542e-07
2.11536e-09
1.54776e-07
1.53936e-09
1.54425e-07
2.75175e-10
1.48903e-07
5.23966e-09
1.29768e-07
1.91009e-08
8.8272e-08
4.12007e-08
2.01926e-08
6.79058e-08
-7.13739e-08
9.1296e-08
-1.81135e-07
1.09494e-07
-3.0566e-07
1.24391e-07
-4.42008e-07
1.36057e-07
-5.86008e-07
1.43976e-07
-7.33117e-07
1.4675e-07
-8.78488e-07
1.45345e-07
-1.01978e-06
1.40907e-07
-1.15472e-06
1.34975e-07
-1.28202e-06
1.26956e-07
-1.39978e-06
1.17778e-07
-1.50846e-06
1.08393e-07
-1.60746e-06
9.9099e-08
-1.69839e-06
9.0719e-08
-1.78145e-06
8.31734e-08
-1.85799e-06
7.63724e-08
-1.92814e-06
7.02555e-08
-1.99313e-06
6.48476e-08
-2.05314e-06
6.00824e-08
-2.10912e-06
5.58614e-08
-2.16121e-06
5.21496e-08
-2.21012e-06
4.88098e-08
-2.25592e-06
4.58361e-08
-2.29913e-06
4.31128e-08
-2.33976e-06
4.06455e-08
-2.3782e-06
3.83395e-08
-2.41444e-06
3.62106e-08
-2.44872e-06
3.41935e-08
-2.48106e-06
3.22983e-08
-2.5116e-06
3.04853e-08
-2.54041e-06
2.87573e-08
-2.56752e-06
2.70929e-08
-2.59306e-06
2.54828e-08
-2.61697e-06
2.39312e-08
-2.63943e-06
2.24091e-08
-2.66032e-06
2.09354e-08
-2.67986e-06
1.94685e-08
-2.69797e-06
1.80474e-08
-2.71479e-06
1.66638e-08
-2.73039e-06
1.52972e-08
-2.74465e-06
1.40111e-08
-2.75762e-06
1.27674e-08
-2.76935e-06
1.157e-08
-2.77989e-06
1.03943e-08
-2.78922e-06
9.23056e-09
-2.79737e-06
8.06831e-09
-2.8043e-06
6.88993e-09
-2.80998e-06
5.69434e-09
-2.81441e-06
4.45025e-09
-2.81748e-06
3.15681e-09
-2.81916e-06
1.77114e-09
-2.81936e-06
3.28742e-10
-2.81819e-06
-1.06215e-09
-2.81585e-06
-2.25762e-09
-2.81246e-06
-3.35505e-09
-2.80803e-06
-4.45048e-09
-2.80256e-06
-5.54849e-09
-2.79602e-06
-6.66926e-09
-2.78836e-06
-7.79641e-09
-2.77958e-06
-8.95773e-09
-2.76962e-06
-1.012e-08
-2.7585e-06
-1.13246e-08
-2.74612e-06
-1.25237e-08
-2.73254e-06
-1.37704e-08
-2.71764e-06
-1.50063e-08
-2.70151e-06
-1.62927e-08
-2.68401e-06
-1.75653e-08
-2.66521e-06
-1.88795e-08
-2.645e-06
-2.01722e-08
-2.62349e-06
-2.14963e-08
-2.60067e-06
-2.28141e-08
-2.57658e-06
-2.4167e-08
-2.55115e-06
-2.55019e-08
-2.5244e-06
-2.68542e-08
-2.49624e-06
-2.81618e-08
-2.46676e-06
-2.94734e-08
-2.43593e-06
-3.07423e-08
-2.40384e-06
-3.20118e-08
-2.37045e-06
-3.3242e-08
-2.33585e-06
-3.44651e-08
-2.30003e-06
-3.56483e-08
-2.26305e-06
-3.68114e-08
-2.22493e-06
-3.79363e-08
-2.18572e-06
-3.9032e-08
-2.14547e-06
-4.00733e-08
-2.10423e-06
-4.10621e-08
-2.06208e-06
-4.19808e-08
-2.01911e-06
-4.28241e-08
-1.97535e-06
-4.36253e-08
-1.93072e-06
-4.45254e-08
-1.8852e-06
-4.54392e-08
-1.83891e-06
-4.62358e-08
-1.79188e-06
-4.69779e-08
-1.74418e-06
-4.76682e-08
-1.69585e-06
-4.83135e-08
-1.64691e-06
-4.8913e-08
-1.59743e-06
-4.94714e-08
-1.54743e-06
-4.99867e-08
-1.49695e-06
-5.04641e-08
-1.44604e-06
-5.09014e-08
-1.39473e-06
-5.13031e-08
-1.34306e-06
-5.16661e-08
-1.29106e-06
-5.19936e-08
-1.23877e-06
-5.22805e-08
-1.18624e-06
-5.25303e-08
-1.1335e-06
-5.27408e-08
-1.08058e-06
-5.29189e-08
-1.02751e-06
-5.30662e-08
-9.74321e-07
-5.3192e-08
-9.21017e-07
-5.32993e-08
-8.67618e-07
-5.33971e-08
-8.14121e-07
-5.34874e-08
-7.60536e-07
-5.35772e-08
-7.06855e-07
-5.36649e-08
-6.53086e-07
-5.37522e-08
-5.99225e-07
-5.3836e-08
-5.45282e-07
-5.39179e-08
-4.9125e-07
-5.3998e-08
-4.37138e-07
-5.40796e-08
-3.82937e-07
-5.41612e-08
-3.28659e-07
-5.42396e-08
-2.74315e-07
-5.43003e-08
-2.19959e-07
-5.43155e-08
-1.65679e-07
-5.42352e-08
-1.11666e-07
-5.39732e-08
-5.83092e-08
-5.33122e-08
-6.26604e-09
-5.20057e-08
4.2863e-08
-4.90871e-08
8.86107e-08
-4.57143e-08
-2.16224e-08
1.10273e-07
-3.41157e-09
1.09279e-08
-9.67732e-09
1.9262e-08
-1.30358e-08
1.7773e-08
-6.89543e-09
6.55327e-09
1.372e-08
-1.43411e-08
4.83978e-08
-4.05487e-08
9.33633e-08
-6.55604e-08
1.43718e-07
-8.38353e-08
1.9446e-07
-9.3463e-08
2.42124e-07
-9.51723e-08
2.84994e-07
-9.08071e-08
3.22275e-07
-8.24417e-08
3.53658e-07
-7.17533e-08
3.79358e-07
-5.98766e-08
3.9956e-07
-4.75217e-08
4.14726e-07
-3.50827e-08
4.25126e-07
-2.27579e-08
4.3138e-07
-1.06435e-08
4.33799e-07
1.26506e-09
4.32638e-07
1.3066e-08
4.27367e-07
2.47847e-08
4.17634e-07
3.62651e-08
4.02658e-07
4.71583e-08
3.82193e-07
5.69272e-08
3.55849e-07
6.48485e-08
3.24159e-07
7.01146e-08
2.87858e-07
7.19408e-08
2.4886e-07
6.98362e-08
2.09303e-07
6.37539e-08
1.72419e-07
5.41794e-08
1.41105e-07
4.18681e-08
1.18624e-07
2.75371e-08
1.06439e-07
1.15342e-08
1.05656e-07
-5.57233e-09
1.15351e-07
-2.32674e-08
1.33769e-07
-3.97905e-08
1.55521e-07
-5.06214e-08
1.74476e-07
-5.13375e-08
1.85953e-07
-4.2105e-08
1.88395e-07
-2.64908e-08
1.8169e-07
-8.10585e-09
1.67262e-07
8.43692e-09
1.46592e-07
2.02664e-08
1.14404e-07
3.41461e-08
6.03032e-08
5.53094e-08
-2.42612e-08
8.46642e-08
-1.40477e-07
1.21232e-07
-2.80058e-07
1.58558e-07
-4.32122e-07
1.93161e-07
-5.88873e-07
2.24577e-07
-7.47675e-07
2.50013e-07
-9.06206e-07
2.67932e-07
-1.0607e-06
2.78818e-07
-1.20752e-06
2.8278e-07
-1.34345e-06
2.79836e-07
-1.46724e-06
2.70397e-07
-1.57804e-06
2.56061e-07
-1.67624e-06
2.38956e-07
-1.76219e-06
2.20849e-07
-1.83798e-06
2.02588e-07
-1.90511e-06
1.84842e-07
-1.96524e-06
1.68408e-07
-2.01956e-06
1.53382e-07
-2.069e-06
1.40078e-07
-2.11426e-06
1.28427e-07
-2.1562e-06
1.18242e-07
-2.19528e-06
1.09328e-07
-2.23199e-06
1.01511e-07
-2.26655e-06
9.46361e-08
-2.29927e-06
8.85368e-08
-2.33022e-06
8.3093e-08
-2.35961e-06
7.81694e-08
-2.38747e-06
7.36893e-08
-2.41394e-06
6.95489e-08
-2.43902e-06
6.57053e-08
-2.46281e-06
6.20877e-08
-2.4853e-06
5.86688e-08
-2.50656e-06
5.54039e-08
-2.52658e-06
5.22807e-08
-2.54539e-06
4.92689e-08
-2.56303e-06
4.63592e-08
-2.5795e-06
4.35349e-08
-2.59483e-06
4.07884e-08
-2.60902e-06
3.81131e-08
-2.62212e-06
3.54947e-08
-2.63412e-06
3.2932e-08
-2.64509e-06
3.04114e-08
-2.65503e-06
2.79491e-08
-2.66404e-06
2.55239e-08
-2.6721e-06
2.31783e-08
-2.67916e-06
2.08921e-08
-2.68521e-06
1.86746e-08
-2.69025e-06
1.65192e-08
-2.69434e-06
1.43931e-08
-2.69745e-06
1.22977e-08
-2.69964e-06
1.02118e-08
-2.70088e-06
8.13607e-09
-2.70123e-06
6.05643e-09
-2.70068e-06
3.96606e-09
-2.69932e-06
1.86548e-09
-2.69721e-06
-2.40202e-10
-2.69448e-06
-2.31195e-09
-2.6911e-06
-4.35475e-09
-2.68689e-06
-6.40246e-09
-2.68173e-06
-8.50017e-09
-2.67557e-06
-1.06298e-08
-2.66839e-06
-1.27985e-08
-2.66014e-06
-1.50031e-08
-2.65082e-06
-1.72494e-08
-2.64036e-06
-1.95379e-08
-2.62876e-06
-2.18677e-08
-2.61597e-06
-2.42436e-08
-2.60197e-06
-2.66571e-08
-2.58674e-06
-2.91171e-08
-2.57025e-06
-3.16098e-08
-2.55248e-06
-3.41482e-08
-2.53341e-06
-3.67115e-08
-2.51301e-06
-3.93009e-08
-2.49127e-06
-4.18987e-08
-2.46822e-06
-4.45228e-08
-2.44389e-06
-4.71615e-08
-2.41829e-06
-4.98289e-08
-2.39138e-06
-5.24902e-08
-2.36315e-06
-5.51442e-08
-2.33359e-06
-5.77546e-08
-2.30271e-06
-6.03377e-08
-2.27053e-06
-6.28705e-08
-2.23711e-06
-6.53705e-08
-2.20245e-06
-6.78166e-08
-2.16659e-06
-7.02204e-08
-2.12957e-06
-7.25623e-08
-2.09142e-06
-7.48482e-08
-2.05217e-06
-7.70639e-08
-2.01188e-06
-7.92119e-08
-1.97056e-06
-8.12766e-08
-1.92825e-06
-8.32591e-08
-1.88496e-06
-8.51543e-08
-1.84073e-06
-8.69695e-08
-1.79555e-06
-8.87231e-08
-1.74955e-06
-9.04683e-08
-1.70279e-06
-9.21485e-08
-1.65528e-06
-9.37122e-08
-1.60706e-06
-9.51719e-08
-1.55818e-06
-9.65388e-08
-1.50866e-06
-9.78135e-08
-1.45856e-06
-9.90029e-08
-1.40792e-06
-1.00107e-07
-1.35676e-06
-1.0113e-07
-1.30515e-06
-1.02074e-07
-1.2531e-06
-1.02942e-07
-1.20066e-06
-1.03737e-07
-1.14786e-06
-1.04461e-07
-1.09473e-06
-1.05111e-07
-1.04132e-06
-1.05687e-07
-9.87664e-07
-1.06187e-07
-9.33789e-07
-1.06613e-07
-8.79736e-07
-1.06971e-07
-8.25528e-07
-1.07271e-07
-7.71192e-07
-1.07526e-07
-7.16742e-07
-1.07746e-07
-6.6219e-07
-1.07944e-07
-6.0754e-07
-1.08131e-07
-5.52795e-07
-1.08314e-07
-4.97951e-07
-1.08497e-07
-4.43011e-07
-1.08679e-07
-3.87971e-07
-1.08858e-07
-3.32836e-07
-1.09034e-07
-2.77601e-07
-1.09209e-07
-2.22268e-07
-1.09389e-07
-1.6683e-07
-1.09571e-07
-1.11292e-07
-1.0975e-07
-5.56612e-08
-1.099e-07
1.69861e-11
-1.09966e-07
5.567e-08
-1.09858e-07
1.11137e-07
-1.09413e-07
1.66152e-07
-1.08298e-07
2.20198e-07
-1.06026e-07
2.7274e-07
-1.01603e-07
3.20439e-07
-9.33896e-08
-6.75072e-08
3.66351e-07
5.44143e-10
1.02911e-08
3.48552e-09
1.61711e-08
1.66024e-08
4.48696e-09
4.73457e-08
-2.43077e-08
9.49252e-08
-6.20046e-08
1.51253e-07
-9.6935e-08
2.06942e-07
-1.21296e-07
2.561e-07
-1.33026e-07
2.96529e-07
-1.33929e-07
3.28532e-07
-1.27192e-07
3.53454e-07
-1.15763e-07
3.72809e-07
-1.01806e-07
3.87728e-07
-8.67072e-08
3.99107e-07
-7.12631e-08
4.07446e-07
-5.59033e-08
4.13195e-07
-4.08429e-08
4.16559e-07
-2.61805e-08
4.17859e-07
-1.19635e-08
4.17263e-07
1.78311e-09
4.15211e-07
1.50833e-08
4.11897e-07
2.80008e-08
4.07563e-07
4.05493e-08
4.01935e-07
5.26543e-08
3.94691e-07
6.40886e-08
3.8496e-07
7.44102e-08
3.72002e-07
8.29399e-08
3.54945e-07
8.87747e-08
3.33706e-07
9.08896e-08
3.08809e-07
8.83806e-08
2.82065e-07
8.06826e-08
2.5586e-07
6.77473e-08
2.33072e-07
5.0049e-08
2.15683e-07
2.85541e-08
2.05166e-07
4.66171e-09
2.0051e-07
-1.89336e-08
1.96992e-07
-3.6492e-08
1.87689e-07
-4.15447e-08
1.69335e-07
-3.3167e-08
1.41932e-07
-1.49054e-08
1.06121e-07
9.13465e-09
5.97541e-08
3.80255e-08
-3.04607e-09
7.10142e-08
-8.97957e-08
1.06826e-07
-2.0283e-07
1.47051e-07
-3.38479e-07
1.90868e-07
-4.89319e-07
2.35434e-07
-6.45412e-07
2.77257e-07
-8.00402e-07
3.13493e-07
-9.49421e-07
3.42125e-07
-1.08755e-06
3.62661e-07
-1.21231e-06
3.74734e-07
-1.32296e-06
3.78533e-07
-1.41901e-06
3.7483e-07
-1.50089e-06
3.64606e-07
-1.57014e-06
3.49036e-07
-1.62941e-06
3.29584e-07
-1.68129e-06
3.07877e-07
-1.72785e-06
2.85418e-07
-1.7704e-06
2.63328e-07
-1.81023e-06
2.42319e-07
-1.84821e-06
2.22754e-07
-1.88484e-06
2.04947e-07
-1.92043e-06
1.88926e-07
-1.95507e-06
1.74656e-07
-1.98872e-06
1.62032e-07
-2.02139e-06
1.50866e-07
-2.05306e-06
1.40965e-07
-2.08373e-06
1.32147e-07
-2.11336e-06
1.24244e-07
-2.14195e-06
1.17103e-07
-2.16946e-06
1.10597e-07
-2.19591e-06
1.04606e-07
-2.22127e-06
9.90415e-08
-2.24556e-06
9.3823e-08
-2.26876e-06
8.88888e-08
-2.29087e-06
8.41828e-08
-2.3119e-06
7.96717e-08
-2.33184e-06
7.53193e-08
-2.35069e-06
7.11058e-08
-2.36845e-06
6.70102e-08
-2.38514e-06
6.302e-08
-2.40075e-06
5.91237e-08
-2.4153e-06
5.53144e-08
-2.42878e-06
5.15862e-08
-2.44123e-06
4.79299e-08
-2.45265e-06
4.4344e-08
-2.46307e-06
4.0822e-08
-2.47252e-06
3.73634e-08
-2.48105e-06
3.39787e-08
-2.48867e-06
3.06556e-08
-2.49532e-06
2.74277e-08
-2.50099e-06
2.42837e-08
-2.50573e-06
2.12063e-08
-2.50956e-06
1.81865e-08
-2.51248e-06
1.52063e-08
-2.51452e-06
1.22568e-08
-2.51569e-06
9.33131e-09
-2.51602e-06
6.4162e-09
-2.51549e-06
3.51185e-09
-2.51416e-06
6.03576e-10
-2.51201e-06
-2.29944e-09
-2.50904e-06
-5.20945e-09
-2.50519e-06
-8.13955e-09
-2.50043e-06
-1.11313e-08
-2.49472e-06
-1.41957e-08
-2.48806e-06
-1.73255e-08
-2.48039e-06
-2.05213e-08
-2.47169e-06
-2.37794e-08
-2.46194e-06
-2.71089e-08
-2.45107e-06
-3.05011e-08
-2.43909e-06
-3.39684e-08
-2.42593e-06
-3.74969e-08
-2.41161e-06
-4.10986e-08
-2.39605e-06
-4.47566e-08
-2.37928e-06
-4.8482e-08
-2.36124e-06
-5.22563e-08
-2.34193e-06
-5.60804e-08
-2.32131e-06
-5.99297e-08
-2.2994e-06
-6.38079e-08
-2.2762e-06
-6.77111e-08
-2.25175e-06
-7.1645e-08
-2.22603e-06
-7.55975e-08
-2.19904e-06
-7.95513e-08
-2.17075e-06
-8.3474e-08
-2.14118e-06
-8.73539e-08
-2.11032e-06
-9.11778e-08
-2.07822e-06
-9.49437e-08
-2.04489e-06
-9.8644e-08
-2.01037e-06
-1.02275e-07
-1.97468e-06
-1.05829e-07
-1.93786e-06
-1.09299e-07
-1.89995e-06
-1.12678e-07
-1.86096e-06
-1.15958e-07
-1.82095e-06
-1.19133e-07
-1.77995e-06
-1.22197e-07
-1.73797e-06
-1.25145e-07
-1.69507e-06
-1.2798e-07
-1.65126e-06
-1.30708e-07
-1.60659e-06
-1.3334e-07
-1.56112e-06
-1.3589e-07
-1.51491e-06
-1.38329e-07
-1.46796e-06
-1.40625e-07
-1.42033e-06
-1.42783e-07
-1.37204e-06
-1.44805e-07
-1.32315e-06
-1.46696e-07
-1.27368e-06
-1.48459e-07
-1.22367e-06
-1.50098e-07
-1.17317e-06
-1.51616e-07
-1.12222e-06
-1.53018e-07
-1.07084e-06
-1.54307e-07
-1.01908e-06
-1.55488e-07
-9.66971e-07
-1.56564e-07
-9.14539e-07
-1.57535e-07
-8.61821e-07
-1.58396e-07
-8.08854e-07
-1.59146e-07
-7.55671e-07
-1.59787e-07
-7.02305e-07
-1.60329e-07
-6.48783e-07
-1.60786e-07
-5.95127e-07
-1.61175e-07
-5.41352e-07
-1.61512e-07
-4.87472e-07
-1.61817e-07
-4.3349e-07
-1.62104e-07
-3.79408e-07
-1.62387e-07
-3.25224e-07
-1.62671e-07
-2.70937e-07
-1.62956e-07
-2.16545e-07
-1.63238e-07
-1.62049e-07
-1.63519e-07
-1.07445e-07
-1.63802e-07
-5.27293e-08
-1.64094e-07
2.10385e-09
-1.64393e-07
5.70536e-08
-1.6469e-07
1.12112e-07
-1.64949e-07
1.67255e-07
-1.651e-07
2.22418e-07
-1.65012e-07
2.77476e-07
-1.64464e-07
3.32246e-07
-1.63061e-07
3.86413e-07
-1.60188e-07
4.39577e-07
-1.54761e-07
4.90826e-07
-1.44634e-07
-1.20166e-07
5.4349e-07
-1.4484e-10
1.03529e-08
1.12291e-08
4.6678e-09
4.76973e-08
-3.20771e-08
1.06242e-07
-8.29118e-08
1.71448e-07
-1.27251e-07
2.29474e-07
-1.54992e-07
2.73844e-07
-1.65696e-07
3.04525e-07
-1.63724e-07
3.24568e-07
-1.53997e-07
3.37522e-07
-1.40156e-07
3.46099e-07
-1.24365e-07
3.52052e-07
-1.07765e-07
3.56256e-07
-9.0937e-08
3.59171e-07
-7.41827e-08
3.60906e-07
-5.76692e-08
3.61556e-07
-4.15009e-08
3.61085e-07
-2.57521e-08
3.59585e-07
-1.04819e-08
3.5705e-07
4.2564e-09
3.53671e-07
1.84371e-08
3.49544e-07
3.20431e-08
3.44992e-07
4.50504e-08
3.40115e-07
5.74158e-08
3.3509e-07
6.90269e-08
3.29674e-07
7.96563e-08
3.23595e-07
8.88847e-08
3.16095e-07
9.60528e-08
3.06562e-07
1.00239e-07
2.94323e-07
1.00351e-07
2.79449e-07
9.53376e-08
2.62377e-07
8.45188e-08
2.44456e-07
6.774e-08
2.26794e-07
4.58919e-08
2.09411e-07
2.18133e-08
1.8764e-07
2.56033e-09
1.55286e-07
-4.32519e-09
1.10433e-07
3.0794e-09
5.37324e-08
2.33519e-08
-1.62301e-08
5.48567e-08
-1.02543e-07
9.5283e-08
-2.06576e-07
1.41932e-07
-3.27368e-07
1.91708e-07
-4.62488e-07
2.41868e-07
-6.05885e-07
2.9039e-07
-7.50417e-07
3.35345e-07
-8.89609e-07
3.74584e-07
-1.01796e-06
4.0556e-07
-1.13194e-06
4.27431e-07
-1.23036e-06
4.40517e-07
-1.31294e-06
4.45215e-07
-1.38071e-06
4.42474e-07
-1.43562e-06
4.33417e-07
-1.48005e-06
4.19235e-07
-1.51663e-06
4.01157e-07
-1.548e-06
3.80378e-07
-1.57652e-06
3.5805e-07
-1.6039e-06
3.35206e-07
-1.63122e-06
3.12671e-07
-1.65897e-06
2.91025e-07
-1.68738e-06
2.70658e-07
-1.71645e-06
2.51766e-07
-1.74604e-06
2.34464e-07
-1.77592e-06
2.18752e-07
-1.80588e-06
2.04556e-07
-1.83566e-06
1.91768e-07
-1.86509e-06
1.80245e-07
-1.89399e-06
1.69836e-07
-1.92227e-06
1.60387e-07
-1.9498e-06
1.51757e-07
-1.97653e-06
1.43815e-07
-2.00239e-06
1.36447e-07
-2.02734e-06
1.29553e-07
-2.05135e-06
1.23051e-07
-2.0744e-06
1.16864e-07
-2.09646e-06
1.10939e-07
-2.11751e-06
1.05229e-07
-2.13755e-06
9.96972e-08
-2.15656e-06
9.43159e-08
-2.17454e-06
8.90658e-08
-2.19147e-06
8.3931e-08
-2.20737e-06
7.89011e-08
-2.22224e-06
7.39688e-08
-2.23607e-06
6.91294e-08
-2.24888e-06
6.43793e-08
-2.26067e-06
5.97152e-08
-2.27147e-06
5.51344e-08
-2.2813e-06
5.06356e-08
-2.29017e-06
4.62209e-08
-2.29816e-06
4.18807e-08
-2.30523e-06
3.76518e-08
-2.31137e-06
3.35001e-08
-2.31658e-06
2.94558e-08
-2.32089e-06
2.54951e-08
-2.32431e-06
2.16076e-08
-2.32687e-06
1.77746e-08
-2.32858e-06
1.39847e-08
-2.32943e-06
1.02283e-08
-2.32945e-06
6.48865e-09
-2.32864e-06
2.7634e-09
-2.32699e-06
-9.70516e-10
-2.3245e-06
-4.71203e-09
-2.32116e-06
-8.49134e-09
-2.31693e-06
-1.23201e-08
-2.31181e-06
-1.6235e-08
-2.30577e-06
-2.02381e-08
-2.29879e-06
-2.43341e-08
-2.29085e-06
-2.85205e-08
-2.2819e-06
-3.27982e-08
-2.27192e-06
-3.71736e-08
-2.26087e-06
-4.16394e-08
-2.24872e-06
-4.62076e-08
-2.23545e-06
-5.08613e-08
-2.22102e-06
-5.56157e-08
-2.20541e-06
-6.04457e-08
-2.18859e-06
-6.53686e-08
-2.17055e-06
-7.03519e-08
-2.15126e-06
-7.54004e-08
-2.13071e-06