/*--------------------------------*- C++ -*----------------------------------*\
  =========                 |
  \\      /  F ield         | OpenFOAM: The Open Source CFD Toolbox
   \\    /   O peration     | Website:  https://openfoam.org
    \\  /    A nd           | Version:  13
     \\/     M anipulation  |
\*---------------------------------------------------------------------------*/
FoamFile
{
    format      ascii;
    class       volVectorField;
    location    "1400";
    object      U;
}
// * * * * * * * * * * * * * * * * * * * * * * * * * * * * * * * * * * * * * //

dimensions      [0 1 -1 0 0 0 0];

internalField   nonuniform List<vector> 
12225
(
(9.75828 0.0531095 0)
(9.28428 0.111111 0)
(8.8177 0.109809 0)
(8.37757 0.0929951 0)
(7.99634 0.0863929 0)
(7.65516 0.0941414 0)
(7.3562 0.0779743 0)
(7.11633 0.0525962 0)
(6.9066 0.0355607 0)
(6.72547 0.0272416 0)
(6.5772 0.0146692 0)
(6.44702 0.0135835 0)
(6.35836 0.0266892 0)
(6.28711 0.0294778 0)
(6.23872 0.0223026 0)
(6.21009 0.0124408 0)
(6.19968 0.00173199 0)
(6.21321 -0.0134094 0)
(10.0975 0.0623059 0)
(10.2498 0.0876105 0)
(10.3642 0.0887939 0)
(10.416 0.0903955 0)
(10.4244 0.0893688 0)
(10.3884 0.0854848 0)
(10.322 0.0815107 0)
(10.2404 0.0780794 0)
(10.1623 0.0753761 0)
(10.0876 0.0679811 0)
(10.0064 0.0646617 0)
(9.93079 0.0577787 0)
(9.83693 0.0464126 0)
(9.73905 0.0383291 0)
(9.64096 0.0319524 0)
(9.5482 0.0268456 0)
(9.45994 0.0217823 0)
(9.38177 0.0152192 0)
(10.0183 0.0408714 0)
(10.0968 0.0725684 0)
(10.1308 0.0787964 0)
(10.1718 0.0775008 0)
(10.2121 0.0787585 0)
(10.2556 0.0812794 0)
(10.2972 0.0830495 0)
(10.3334 0.0803338 0)
(10.3629 0.0750465 0)
(10.3791 0.0747655 0)
(10.3866 0.0711433 0)
(10.3908 0.0672066 0)
(10.3928 0.0660465 0)
(10.3922 0.0633075 0)
(10.3885 0.0585132 0)
(10.3802 0.0521535 0)
(10.3684 0.0447179 0)
(10.3517 0.034287 0)
(10.0091 0.032241 0)
(10.0429 0.0596975 0)
(10.0666 0.0639896 0)
(10.0856 0.0686014 0)
(10.0994 0.0722568 0)
(10.1151 0.0771628 0)
(10.1368 0.0729252 0)
(10.1477 0.0657395 0)
(10.153 0.0653046 0)
(10.1761 0.0676757 0)
(10.1984 0.0637548 0)
(10.2139 0.0592128 0)
(10.2295 0.0555906 0)
(10.2444 0.0521918 0)
(10.2583 0.0478733 0)
(10.2704 0.0431003 0)
(10.2805 0.037701 0)
(10.2891 0.0308694 0)
(10.0037 0.0270677 0)
(10.0351 0.0543209 0)
(10.0575 0.063616 0)
(10.0692 0.0689586 0)
(10.0822 0.0721784 0)
(10.0945 0.0727471 0)
(10.1066 0.0728485 0)
(10.1182 0.0725414 0)
(10.1273 0.0657081 0)
(10.1334 0.0578826 0)
(10.1399 0.0548355 0)
(10.1477 0.0529791 0)
(10.1553 0.050832 0)
(10.1632 0.0481904 0)
(10.1711 0.0447187 0)
(10.1783 0.0406301 0)
(10.1845 0.0358745 0)
(10.1895 0.0305015 0)
(10.0024 0.0191012 0)
(10.0267 0.0507985 0)
(10.0512 0.0622081 0)
(10.0653 0.0656253 0)
(10.0778 0.0669293 0)
(10.0887 0.0675753 0)
(10.0994 0.0668454 0)
(10.1104 0.0641061 0)
(10.1195 0.0593276 0)
(10.1253 0.0559441 0)
(10.1309 0.0539651 0)
(10.137 0.0512153 0)
(10.1429 0.0485647 0)
(10.1487 0.0456952 0)
(10.1543 0.0420493 0)
(10.1592 0.0378404 0)
(10.1635 0.033204 0)
(10.1664 0.0283839 0)
(10.0019 0.0159853 0)
(10.0181 0.0396897 0)
(10.037 0.0516627 0)
(10.0532 0.0585017 0)
(10.0669 0.0613778 0)
(10.0786 0.0628913 0)
(10.0897 0.0627528 0)
(10.1002 0.0610192 0)
(10.109 0.0573872 0)
(10.1157 0.0541492 0)
(10.1218 0.0518513 0)
(10.128 0.0491944 0)
(10.1336 0.0462227 0)
(10.1389 0.0430112 0)
(10.1439 0.0393842 0)
(10.1483 0.0354267 0)
(10.1519 0.0312746 0)
(10.1547 0.0272816 0)
(10.0018 0.0133502 0)
(10.0129 0.0356521 0)
(10.0293 0.0479742 0)
(10.045 0.0539937 0)
(10.0579 0.0569239 0)
(10.0694 0.0583711 0)
(10.0802 0.0583099 0)
(10.0904 0.0568332 0)
(10.0992 0.0540148 0)
(10.106 0.0511945 0)
(10.1124 0.0487303 0)
(10.1185 0.0459795 0)
(10.1242 0.0431091 0)
(10.1294 0.0400957 0)
(10.1342 0.0367724 0)
(10.1383 0.0332082 0)
(10.1418 0.0295573 0)
(10.1446 0.0261598 0)
(10.0015 0.0112705 0)
(10.0097 0.0312101 0)
(10.0241 0.0429848 0)
(10.0387 0.0490649 0)
(10.0509 0.0522547 0)
(10.0619 0.0537873 0)
(10.0723 0.0538755 0)
(10.0821 0.0526788 0)
(10.0905 0.0502981 0)
(10.0976 0.0477636 0)
(10.104 0.0454559 0)
(10.1101 0.0429056 0)
(10.1158 0.0401535 0)
(10.1209 0.0372438 0)
(10.1255 0.0341227 0)
(10.1296 0.0308506 0)
(10.133 0.0275406 0)
(10.1359 0.0244842 0)
(10.0011 0.00955394 0)
(10.0077 0.0269442 0)
(10.02 0.0379697 0)
(10.0332 0.0440456 0)
(10.0447 0.0474106 0)
(10.0553 0.0490688 0)
(10.0654 0.0493422 0)
(10.0747 0.0483937 0)
(10.083 0.0464433 0)
(10.0902 0.0442232 0)
(10.0966 0.0420182 0)
(10.1027 0.0395974 0)
(10.1082 0.0369912 0)
(10.1133 0.0342399 0)
(10.1179 0.0313412 0)
(10.1219 0.0283404 0)
(10.1253 0.0253384 0)
(10.1283 0.0225546 0)
(10.0008 0.0081145 0)
(10.0062 0.0230287 0)
(10.0167 0.0330674 0)
(10.0283 0.0390202 0)
(10.0391 0.0424353 0)
(10.0493 0.0441732 0)
(10.0589 0.0445978 0)
(10.0679 0.0438931 0)
(10.076 0.0423107 0)
(10.0831 0.0403807 0)
(10.0896 0.038336 0)
(10.0956 0.0360826 0)
(10.1012 0.033644 0)
(10.1062 0.0310761 0)
(10.1107 0.0283926 0)
(10.1147 0.0256553 0)
(10.1181 0.0229334 0)
(10.1212 0.0203973 0)
(10.0006 0.00693266 0)
(10.0052 0.0197881 0)
(10.0141 0.028838 0)
(10.0245 0.0345025 0)
(10.0345 0.0378331 0)
(10.0441 0.0395825 0)
(10.0533 0.0401027 0)
(10.062 0.0395856 0)
(10.0698 0.0382849 0)
(10.0769 0.0365979 0)
(10.0834 0.0347121 0)
(10.0893 0.0326201 0)
(10.0948 0.03036 0)
(10.0998 0.0279683 0)
(10.1042 0.0255024 0)
(10.1082 0.0229925 0)
(10.1117 0.020516 0)
(10.1149 0.0181768 0)
(10.0005 0.0058986 0)
(10.0044 0.0169525 0)
(10.012 0.0249485 0)
(10.0212 0.0301923 0)
(10.0305 0.0333443 0)
(10.0394 0.0350411 0)
(10.0481 0.03561 0)
(10.0564 0.0352414 0)
(10.064 0.0341688 0)
(10.0709 0.0326913 0)
(10.0773 0.0309759 0)
(10.0832 0.029058 0)
(10.0886 0.0269787 0)
(10.0935 0.0247786 0)
(10.0979 0.0225109 0)
(10.1019 0.0202182 0)
(10.1054 0.0179384 0)
(10.1086 0.01581 0)
(10.0004 0.00486719 0)
(10.0037 0.0140453 0)
(10.0101 0.020826 0)
(10.0181 0.0254722 0)
(10.0265 0.028328 0)
(10.0347 0.0298886 0)
(10.0428 0.0304511 0)
(10.0505 0.0301907 0)
(10.0578 0.0293106 0)
(10.0645 0.0280374 0)
(10.0707 0.0265027 0)
(10.0764 0.0247797 0)
(10.0817 0.0228926 0)
(10.0865 0.0209178 0)
(10.0909 0.0188657 0)
(10.0949 0.0168142 0)
(10.0984 0.0147646 0)
(10.1016 0.0128558 0)
(10.0003 0.00382398 0)
(10.0031 0.0110988 0)
(10.0084 0.0165229 0)
(10.0153 0.0203895 0)
(10.0227 0.0228084 0)
(10.0302 0.0241359 0)
(10.0376 0.0246186 0)
(10.0448 0.0244088 0)
(10.0517 0.0236724 0)
(10.0581 0.0225704 0)
(10.064 0.0212245 0)
(10.0695 0.0196909 0)
(10.0746 0.0180362 0)
(10.0793 0.0162781 0)
(10.0836 0.0144934 0)
(10.0875 0.0126769 0)
(10.091 0.0109128 0)
(10.0942 0.00921928 0)
(10.0003 0.0027713 0)
(10.0026 0.00812904 0)
(10.007 0.0120762 0)
(10.0128 0.0149776 0)
(10.0194 0.0168031 0)
(10.0262 0.0177792 0)
(10.0329 0.0180905 0)
(10.0396 0.0178565 0)
(10.046 0.0172004 0)
(10.052 0.0162361 0)
(10.0576 0.0150637 0)
(10.0629 0.0137334 0)
(10.0678 0.0123034 0)
(10.0723 0.0108014 0)
(10.0765 0.00927537 0)
(10.0803 0.0077435 0)
(10.0837 0.00624301 0)
(10.087 0.0048317 0)
(10.0002 0.00170916 0)
(10.0022 0.0051144 0)
(10.0059 0.00747973 0)
(10.0109 0.00923177 0)
(10.0167 0.0102957 0)
(10.0228 0.010782 0)
(10.029 0.010812 0)
(10.0351 0.0104646 0)
(10.041 0.00981562 0)
(10.0467 0.0089523 0)
(10.0521 0.00792373 0)
(10.0571 0.00679928 0)
(10.0618 0.00558927 0)
(10.0662 0.0043567 0)
(10.0702 0.00309192 0)
(10.0739 0.00185866 0)
(10.0773 0.000629116 0)
(10.0805 -0.000500029 0)
(10.0002 0.000608558 0)
(10.0019 0.00196926 0)
(10.0051 0.00262086 0)
(10.0096 0.00305116 0)
(10.0149 0.00317279 0)
(10.0205 0.00301686 0)
(10.0262 0.00263868 0)
(10.0319 0.00207265 0)
(10.0375 0.00135628 0)
(10.0429 0.000529704 0)
(10.048 -0.000374271 0)
(10.0528 -0.00132636 0)
(10.0574 -0.00230708 0)
(10.0616 -0.00329375 0)
(10.0655 -0.00427374 0)
(10.0692 -0.00522954 0)
(10.0726 -0.00615331 0)
(10.0758 -0.00701704 0)
(10.0002 -0.00061189 0)
(10.0018 -0.00153709 0)
(10.0049 -0.00278219 0)
(10.0092 -0.00385235 0)
(10.0143 -0.00483617 0)
(10.0196 -0.00577453 0)
(10.0251 -0.0066775 0)
(10.0307 -0.00755259 0)
(10.0361 -0.00841146 0)
(10.0413 -0.00924595 0)
(10.0463 -0.0100678 0)
(10.0511 -0.0108619 0)
(10.0555 -0.011638 0)
(10.0597 -0.0123783 0)
(10.0636 -0.0130916 0)
(10.0673 -0.0137624 0)
(10.0707 -0.0143945 0)
(10.0739 -0.0149732 0)
(10.0002 -0.00181607 0)
(10.002 -0.00500299 0)
(10.0055 -0.00806168 0)
(10.0102 -0.0105266 0)
(10.0155 -0.0125271 0)
(10.0211 -0.0141802 0)
(10.0268 -0.0155596 0)
(10.0324 -0.0167195 0)
(10.0379 -0.0176961 0)
(10.0433 -0.0185463 0)
(10.0483 -0.019282 0)
(10.0531 -0.0199474 0)
(10.0577 -0.0205309 0)
(10.0619 -0.0210718 0)
(10.0659 -0.0215441 0)
(10.0696 -0.0219867 0)
(10.073 -0.0223592 0)
(10.0763 -0.0227105 0)
(10.0003 -0.00294326 0)
(10.0024 -0.00820878 0)
(10.0065 -0.0128045 0)
(10.0119 -0.0163629 0)
(10.0178 -0.0191142 0)
(10.0238 -0.0212863 0)
(10.0298 -0.022989 0)
(10.0358 -0.0243143 0)
(10.0416 -0.0253388 0)
(10.0471 -0.0261499 0)
(10.0524 -0.0267918 0)
(10.0573 -0.0273216 0)
(10.0619 -0.0277447 0)
(10.0662 -0.0281089 0)
(10.0703 -0.0283983 0)
(10.0741 -0.0286517 0)
(10.0776 -0.0288361 0)
(10.0809 -0.0289951 0)
(10.0004 -0.00418816 0)
(10.0032 -0.0116317 0)
(10.0083 -0.0176539 0)
(10.0146 -0.0220857 0)
(10.0212 -0.0254089 0)
(10.0278 -0.0279558 0)
(10.0344 -0.029878 0)
(10.0408 -0.031281 0)
(10.0469 -0.0322966 0)
(10.0527 -0.033026 0)
(10.0581 -0.0335585 0)
(10.0632 -0.0339296 0)
(10.0679 -0.0342051 0)
(10.0723 -0.0343852 0)
(10.0764 -0.0345241 0)
(10.0803 -0.0345934 0)
(10.0839 -0.0346285 0)
(10.0872 -0.0346104 0)
(10.0005 -0.00566558 0)
(10.0043 -0.0154695 0)
(10.0109 -0.0227578 0)
(10.0184 -0.0278204 0)
(10.0259 -0.0315308 0)
(10.0332 -0.0343161 0)
(10.0403 -0.0363207 0)
(10.0472 -0.0376893 0)
(10.0536 -0.0385974 0)
(10.0596 -0.0391981 0)
(10.0652 -0.0395831 0)
(10.0704 -0.0398061 0)
(10.0751 -0.0399156 0)
(10.0796 -0.039952 0)
(10.0837 -0.0399349 0)
(10.0875 -0.0398796 0)
(10.0911 -0.039768 0)
(10.0945 -0.039643 0)
(10.0007 -0.00750529 0)
(10.0061 -0.0199092 0)
(10.0146 -0.0282089 0)
(10.0235 -0.0336823 0)
(10.0319 -0.0376747 0)
(10.0399 -0.040576 0)
(10.0476 -0.0425244 0)
(10.0549 -0.0437027 0)
(10.0616 -0.0443486 0)
(10.0677 -0.0446756 0)
(10.0734 -0.0447992 0)
(10.0786 -0.0447897 0)
(10.0834 -0.0446852 0)
(10.0878 -0.0445536 0)
(10.0919 -0.0443904 0)
(10.0957 -0.044241 0)
(10.0993 -0.044046 0)
(10.1027 -0.0439155 0)
(10.001 -0.00983733 0)
(10.0089 -0.0249959 0)
(10.0197 -0.0338995 0)
(10.0303 -0.0394945 0)
(10.0396 -0.0435865 0)
(10.0483 -0.0464878 0)
(10.0567 -0.0483458 0)
(10.0644 -0.0493213 0)
(10.0714 -0.0497455 0)
(10.0777 -0.0498394 0)
(10.0835 -0.049714 0)
(10.0887 -0.0494346 0)
(10.0935 -0.0490975 0)
(10.0979 -0.0487319 0)
(10.102 -0.0483706 0)
(10.1058 -0.048034 0)
(10.1093 -0.0476919 0)
(10.1127 -0.0474154 0)
(10.0016 -0.0129311 0)
(10.0131 -0.0307972 0)
(10.0271 -0.0398253 0)
(10.0394 -0.0451967 0)
(10.0498 -0.049186 0)
(10.0597 -0.0518437 0)
(10.0691 -0.0533177 0)
(10.0775 -0.0540072 0)
(10.0851 -0.0542246 0)
(10.0919 -0.0541605 0)
(10.098 -0.05392 0)
(10.1035 -0.0535268 0)
(10.1085 -0.053066 0)
(10.113 -0.0526576 0)
(10.1172 -0.0522977 0)
(10.121 -0.0520057 0)
(10.1246 -0.0517511 0)
(10.1281 -0.0515841 0)
(10.003 -0.0180096 0)
(10.0202 -0.0371083 0)
(10.0395 -0.0456498 0)
(10.0549 -0.0511377 0)
(10.0682 -0.0552504 0)
(10.0809 -0.057654 0)
(10.0924 -0.0585887 0)
(10.1027 -0.0586913 0)
(10.112 -0.0583359 0)
(10.1202 -0.0577054 0)
(10.1277 -0.0569119 0)
(10.1345 -0.0560565 0)
(10.1407 -0.0551856 0)
(10.1464 -0.0543783 0)
(10.1516 -0.0536589 0)
(10.1566 -0.0531367 0)
(10.1614 -0.0527997 0)
(10.1659 -0.0525411 0)
(10.0091 -0.0267746 0)
(10.0405 -0.04739 0)
(10.0722 -0.0523457 0)
(10.0979 -0.0567474 0)
(10.1212 -0.0612177 0)
(10.1426 -0.0641632 0)
(10.1622 -0.0655727 0)
(10.1797 -0.066116 0)
(10.1952 -0.0662127 0)
(10.2089 -0.0659999 0)
(10.2211 -0.065521 0)
(10.2318 -0.0648244 0)
(10.241 -0.0640183 0)
(10.2489 -0.0632152 0)
(10.2556 -0.0625395 0)
(10.2613 -0.0621168 0)
(10.2663 -0.06197 0)
(10.2707 -0.0624019 0)
(10.0429 -0.0356089 0)
(10.1439 -0.0636846 0)
(10.2132 -0.0675107 0)
(10.2554 -0.0684931 0)
(10.2791 -0.0695721 0)
(10.2897 -0.0696015 0)
(10.2888 -0.068709 0)
(10.278 -0.0672757 0)
(10.2589 -0.0656513 0)
(10.2338 -0.0639784 0)
(10.2048 -0.0623403 0)
(10.1725 -0.0606601 0)
(10.1379 -0.0590145 0)
(10.1016 -0.0574926 0)
(10.0645 -0.0561279 0)
(10.027 -0.0550777 0)
(9.98989 -0.0545364 0)
(9.95379 -0.0552649 0)
(9.8785 -0.0414852 0)
(9.62601 -0.0752428 0)
(9.35902 -0.0853371 0)
(9.09274 -0.0870808 0)
(8.84222 -0.0848923 0)
(8.61258 -0.0802902 0)
(8.40382 -0.0744408 0)
(8.21458 -0.0678891 0)
(8.04436 -0.0613009 0)
(7.89128 -0.0551969 0)
(7.75329 -0.0496117 0)
(7.62932 -0.0444525 0)
(7.51768 -0.0397923 0)
(7.41722 -0.0356948 0)
(7.32607 -0.0321131 0)
(7.24295 -0.0291281 0)
(7.16527 -0.026786 0)
(7.09314 -0.0260082 0)
(-0.00243833 0.00706345 -7.9449e-19)
(-0.0121192 0.0120526 9.18978e-19)
(-0.0249034 0.0135012 -6.3747e-19)
(-0.0388685 0.0119727 -1.94966e-19)
(-0.0496397 0.00674732 3.01453e-19)
(-0.0502086 -0.00219657 -7.51851e-20)
(-0.0363082 -0.0144069 -7.47273e-20)
(-0.0109124 -0.0275437 3.95386e-19)
(0.0229107 -0.0379145 -1.94873e-19)
(0.0622948 -0.0434435 4.53931e-20)
(0.104606 -0.044576 1.44852e-20)
(0.14651 -0.0423886 -1.54707e-19)
(0.185183 -0.0378904 2.1426e-19)
(0.218855 -0.031854 2.17551e-19)
(0.246578 -0.0248719 1.86354e-20)
(0.267875 -0.0173051 7.83038e-20)
(0.282422 -0.00939049 3.07619e-20)
(0.290238 -0.0011158 5.34726e-20)
(0.290798 0.00751399 7.96764e-20)
(0.283668 0.0161504 8.60567e-21)
(0.269415 0.0240876 -2.93115e-20)
(0.248617 0.0305839 2.49285e-19)
(0.222022 0.0349202 -3.33751e-20)
(0.190789 0.0365536 2.91657e-19)
(0.156512 0.0350464 -6.71228e-20)
(0.121134 0.0303513 2.92133e-19)
(0.0869014 0.0228883 1.73644e-19)
(0.0560239 0.0138255 1.37405e-19)
(0.0304458 0.00499253 -6.79171e-19)
(0.0112029 -0.00157797 -1.54391e-19)
(-0.00175874 -0.00507369 -1.21328e-18)
(-0.00968715 -0.00667037 7.3604e-19)
(-0.0132007 -0.00805878 5.25235e-19)
(-0.010403 -0.0102807 -6.46765e-19)
(-0.00212142 -0.0138435 -9.31787e-19)
(0.0131081 -0.0184952 -4.87216e-20)
(0.0354734 -0.0234307 1.99171e-19)
(0.0627651 -0.0265719 3.71672e-19)
(0.0912604 -0.0263001 2.09849e-19)
(0.116172 -0.0221858 4.21931e-19)
(0.133812 -0.0154535 1.54878e-19)
(0.142905 -0.00844548 3.97199e-20)
(0.144969 -0.00330168 -5.30261e-19)
(0.143144 -0.00114679 -1.09502e-19)
(0.140907 -0.00271798 2.27621e-19)
(0.140263 -0.00915183 1.17168e-20)
(0.138765 -0.0197074 5.42268e-19)
(0.129654 -0.0284049 1.76437e-19)
(0.105283 -0.0240479 7.63447e-20)
(0.0617543 -0.0043399 -7.37389e-19)
(-0.0154702 0.0161843 5.08484e-19)
(-0.114365 0.0369541 2.7451e-20)
(-0.221642 0.0620916 2.52405e-19)
(-0.340327 0.0871647 1.49637e-19)
(-0.467859 0.106614 4.80318e-20)
(-0.601558 0.114625 9.82121e-20)
(-0.737294 0.114616 1.20274e-19)
(-0.869603 0.111064 -1.20802e-19)
(-0.997235 0.108048 4.4635e-20)
(-1.11757 0.102232 4.78815e-20)
(-1.23108 0.0944278 -1.09184e-19)
(-1.33531 0.0861833 -6.91117e-20)
(-1.43135 0.0775262 5.24535e-20)
(-1.51927 0.0704005 6.14687e-20)
(-1.60001 0.0642294 1.6945e-20)
(-1.67433 0.0587571 -6.43081e-20)
(-1.74284 0.0536355 7.01038e-21)
(-1.80618 0.0491678 3.29639e-21)
(-1.86496 0.0451669 1.63713e-20)
(-1.91971 0.0416791 7.96553e-20)
(-1.97093 0.0386083 -3.95417e-21)
(-2.01899 0.0358676 -5.72559e-20)
(-2.06425 0.0334375 6.15452e-20)
(-2.10696 0.0312269 2.23846e-20)
(-2.14738 0.0292346 -3.61592e-20)
(-2.18567 0.0273869 3.00099e-20)
(-2.22201 0.0256914 -4.61299e-21)
(-2.2565 0.0240973 5.7738e-20)
(-2.28924 0.0226131 2.65723e-20)
(-2.32032 0.0212063 -3.92048e-20)
(-2.34983 0.0198814 -1.11889e-20)
(-2.3778 0.0186211 2.21184e-21)
(-2.40432 0.0174257 4.38963e-20)
(-2.42941 0.0162932 5.44304e-20)
(-2.45311 0.0152114 4.78484e-20)
(-2.47546 0.0141884 -4.84854e-20)
(-2.49651 0.0132032 1.02959e-19)
(-2.51632 0.0122752 -4.07983e-21)
(-2.53493 0.0113928 7.35011e-20)
(-2.55241 0.0105434 -1.03881e-19)
(-2.56871 0.00975676 -5.55819e-20)
(-2.58382 0.00900112 4.6602e-20)
(-2.5978 0.00827464 6.75729e-20)
(-2.61068 0.00755576 -1.02199e-20)
(-2.62248 0.00683424 -6.31108e-20)
(-2.6332 0.00609707 -6.24618e-20)
(-2.64283 0.00532927 6.38517e-20)
(-2.65133 0.0045239 -3.42776e-20)
(-2.65867 0.00366463 -8.14694e-20)
(-2.66482 0.00276672 -3.53743e-20)
(-2.66973 0.00184809 8.70069e-20)
(-2.67333 0.000986094 4.35747e-20)
(-2.67551 0.000261085 6.4978e-20)
(-2.67647 -0.000296556 -3.96441e-20)
(-2.67651 -0.000799869 1.26056e-20)
(-2.67555 -0.00130356 4.37295e-21)
(-2.67363 -0.00180757 -8.00905e-21)
(-2.67071 -0.00232122 -1.73394e-20)
(-2.66677 -0.00283986 -2.60279e-20)
(-2.66177 -0.00337475 -4.23343e-20)
(-2.65568 -0.00391267 -5.80019e-20)
(-2.64848 -0.00447139 3.07119e-20)
(-2.64012 -0.00503013 -4.28841e-20)
(-2.63058 -0.00561197 -4.19713e-20)
(-2.61984 -0.00619071 7.40235e-20)
(-2.60786 -0.0067932 -4.3778e-21)
(-2.59463 -0.00738991 -4.75897e-20)
(-2.58009 -0.00800515 -4.96762e-20)
(-2.56423 -0.0086094 4.59281e-20)
(-2.54706 -0.0092271 3.4422e-21)
(-2.52861 -0.00984002 1.38514e-20)
(-2.50889 -0.0104663 -9.09109e-21)
(-2.48787 -0.0110821 -2.6638e-20)
(-2.46553 -0.0117021 2.2583e-20)
(-2.44183 -0.0122994 -1.99866e-20)
(-2.41676 -0.0128956 1.81124e-20)
(-2.39036 -0.0134704 2.45771e-20)
(-2.36263 -0.0140434 -8.73277e-21)
(-2.33361 -0.0145975 2.4195e-20)
(-2.30331 -0.015147 -2.12365e-20)
(-2.27176 -0.0156754 5.09389e-20)
(-2.23899 -0.0161873 -4.38512e-21)
(-2.20503 -0.0166827 -5.24879e-20)
(-2.16989 -0.0171555 1.21636e-20)
(-2.13364 -0.0175745 -2.81493e-21)
(-2.09629 -0.0179063 1.34813e-20)
(-2.05795 -0.0180639 1.47973e-20)
(-2.01868 -0.0179882 -9.33239e-21)
(-1.97853 -0.0178105 -1.80062e-21)
(-1.93745 -0.0179644 -9.5093e-23)
(-1.89539 -0.0183577 1.06216e-20)
(-1.85241 -0.0186744 1.60434e-20)
(-1.80858 -0.0189763 -1.15062e-20)
(-1.76394 -0.0192599 -1.49469e-20)
(-1.71854 -0.0195289 -3.05226e-20)
(-1.67241 -0.0197834 -4.91073e-20)
(-1.62558 -0.0200254 -4.00345e-20)
(-1.5781 -0.0202547 -6.90195e-20)
(-1.52999 -0.0204734 3.59462e-20)
(-1.4813 -0.0206809 3.49447e-20)
(-1.43205 -0.020879 6.2597e-20)
(-1.38229 -0.0210667 4.80399e-20)
(-1.33203 -0.0212449 1.4043e-19)
(-1.28132 -0.0214119 9.74637e-21)
(-1.2302 -0.0215697 6.38918e-21)
(-1.17869 -0.0217182 -1.1364e-19)
(-1.12684 -0.0218608 1.83212e-19)
(-1.07466 -0.0219993 -1.10724e-19)
(-1.02219 -0.0221378 1.56363e-20)
(-0.969433 -0.0222785 5.73783e-20)
(-0.916406 -0.0224257 2.12152e-20)
(-0.863112 -0.0225812 5.46815e-20)
(-0.80955 -0.0227482 2.61735e-19)
(-0.755716 -0.0229272 1.30306e-19)
(-0.701608 -0.0231198 6.20909e-20)
(-0.647224 -0.0233263 8.86806e-20)
(-0.592563 -0.0235494 2.52391e-19)
(-0.537625 -0.0237912 -1.113e-20)
(-0.482405 -0.0240554 2.95308e-19)
(-0.426899 -0.0243433 4.29267e-19)
(-0.371102 -0.0246558 4.20721e-19)
(-0.31502 -0.024988 -1.5433e-20)
(-0.25868 -0.0253337 4.02676e-20)
(-0.202143 -0.0256977 -9.60017e-20)
(-0.145551 -0.0260288 -1.21458e-18)
(-0.0892029 -0.0261906 6.06998e-19)
(-0.0334076 -0.0259776 4.51844e-19)
(0.0187704 -0.024579 -8.81773e-19)
(0.0766619 -0.0216945 -8.04602e-19)
(0.0933135 -0.00987409 1.17713e-18)
(7.65845e-05 0.0191293 2.22824e-18)
(-0.00605622 0.0338555 -1.74198e-18)
(-0.0120058 0.0355621 -7.4105e-19)
(-0.0133214 0.0272477 2.09897e-18)
(-0.00133559 0.00723912 4.52966e-19)
(0.0260829 -0.0266967 1.97335e-19)
(0.0629222 -0.0662689 -1.23296e-19)
(0.105829 -0.100181 -4.5049e-19)
(0.151012 -0.122348 -2.52258e-20)
(0.195036 -0.131663 -3.18999e-19)
(0.235519 -0.130204 1.68973e-20)
(0.271354 -0.121105 -4.38315e-21)
(0.302091 -0.107218 9.72706e-20)
(0.327686 -0.0906455 1.39046e-20)
(0.348294 -0.0728192 -3.01919e-20)
(0.364204 -0.0545738 -2.52604e-19)
(0.375763 -0.0363497 -5.44541e-20)
(0.383202 -0.0183212 2.38612e-19)
(0.387216 -0.000518891 -2.79215e-19)
(0.388122 0.017054 7.79443e-20)
(0.385617 0.0341202 7.07676e-21)
(0.379267 0.0502632 1.55204e-19)
(0.36854 0.0648298 1.83352e-19)
(0.352917 0.0769822 1.60807e-19)
(0.332076 0.0856695 2.17363e-19)
(0.30601 0.0898852 -1.3047e-19)
(0.275291 0.0887769 3.52165e-20)
(0.241125 0.0821426 4.88919e-20)
(0.205383 0.0705432 -2.1221e-19)
(0.170479 0.0553935 -1.72076e-19)
(0.139216 0.0383323 -3.30814e-19)
(0.114406 0.0205819 -1.22245e-19)
(0.0985595 0.00240304 -1.07013e-18)
(0.0926995 -0.0161222 4.56907e-19)
(0.0975096 -0.0344459 -5.93138e-19)
(0.111379 -0.0523569 6.10368e-19)
(0.131037 -0.0668715 -4.89315e-19)
(0.15049 -0.072121 1.16455e-19)
(0.164479 -0.0656258 2.6606e-19)
(0.170614 -0.0503469 -2.01041e-19)
(0.168636 -0.0311718 1.76285e-19)
(0.159346 -0.0147144 -7.77281e-20)
(0.143804 -0.00513031 -3.28508e-19)
(0.121274 -0.000940593 -1.06111e-18)
(0.0848085 0.00387996 -8.68773e-19)
(0.0268355 0.0186647 1.17364e-20)
(-0.0667477 0.0532919 -9.48888e-19)
(-0.190212 0.0986579 -1.61931e-19)
(-0.323108 0.144836 3.98963e-19)
(-0.462401 0.187891 4.61827e-19)
(-0.607666 0.223105 8.86431e-20)
(-0.753673 0.249227 -3.24663e-20)
(-0.897175 0.266614 -2.9654e-20)
(-1.03578 0.275448 -8.68947e-20)
(-1.16612 0.276347 -6.20865e-20)
(-1.28634 0.270151 -1.53953e-19)
(-1.3945 0.258394 -1.73511e-19)
(-1.49081 0.242974 -3.78462e-20)
(-1.57525 0.225482 2.4385e-20)
(-1.6502 0.207082 -1.20837e-19)
(-1.71616 0.188792 9.06246e-20)
(-1.77543 0.171592 -3.8651e-20)
(-1.82887 0.155636 -1.52904e-19)
(-1.87754 0.141324 1.17124e-20)
(-1.92217 0.128661 1.0929e-19)
(-1.96351 0.117513 -4.1897e-20)
(-2.0021 0.107772 4.61789e-21)
(-2.0384 0.0992368 -9.64385e-20)
(-2.0727 0.0917889 3.31562e-20)
(-2.10523 0.0852138 -5.64352e-20)
(-2.13617 0.0794144 1.00792e-21)
(-2.16565 0.0742159 -6.96476e-20)
(-2.19376 0.0695536 2.27195e-21)
(-2.22059 0.0652955 -4.12371e-20)
(-2.24619 0.0614071 5.46066e-20)
(-2.2706 0.0577912 -9.4236e-20)
(-2.29387 0.0544317 1.22684e-20)
(-2.31601 0.0512642 -9.51742e-20)
(-2.33706 0.0482819 3.75631e-21)
(-2.35702 0.0454423 7.51102e-20)
(-2.37592 0.0427388 1.47338e-20)
(-2.39378 0.0401469 -4.40496e-20)
(-2.41061 0.0376578 -6.58477e-20)
(-2.42642 0.0352657 3.77567e-20)
(-2.44123 0.0329508 1.06312e-19)
(-2.45505 0.0307183 -3.36325e-20)
(-2.46792 0.0285451 -1.06857e-21)
(-2.47987 0.0264561 -2.82796e-21)
(-2.49096 0.0244358 6.77195e-20)
(-2.50121 0.0224989 2.37006e-19)
(-2.51056 0.0206581 5.15055e-20)
(-2.519 0.0189005 9.64746e-20)
(-2.52653 0.0172227 -2.08787e-19)
(-2.53317 0.0155945 -1.00226e-19)
(-2.53893 0.0140143 6.50578e-20)
(-2.54382 0.0124645 1.32059e-19)
(-2.54786 0.0109399 -7.24254e-20)
(-2.55105 0.00942787 -2.93852e-20)
(-2.55342 0.00790826 -5.05106e-20)
(-2.555 0.00637217 7.32154e-20)
(-2.55586 0.00480363 -1.01456e-19)
(-2.55607 0.00324308 -7.61188e-20)
(-2.55577 0.00174231 -4.89832e-20)
(-2.55484 0.000347801 1.61552e-19)
(-2.55301 -0.0010045 -1.82016e-20)
(-2.55026 -0.00234573 1.13576e-20)
(-2.54657 -0.00368468 5.91322e-20)
(-2.5419 -0.00502635 1.27321e-19)
(-2.53621 -0.00636986 -1.73691e-20)
(-2.52947 -0.00772354 -4.88332e-20)
(-2.52165 -0.00907717 3.90243e-21)
(-2.51271 -0.0104457 -9.03682e-20)
(-2.50263 -0.0118102 9.80286e-20)
(-2.49137 -0.0131915 3.67648e-20)
(-2.47891 -0.0145652 2.8883e-20)
(-2.46522 -0.0159563 7.18958e-20)
(-2.45028 -0.0173352 8.64283e-20)
(-2.43405 -0.0187193 -4.51209e-20)
(-2.41652 -0.0200811 2.92792e-20)
(-2.39769 -0.0214453 4.23586e-20)
(-2.37758 -0.0227959 5.11397e-20)
(-2.35622 -0.0241519 -5.86112e-21)
(-2.33357 -0.0254819 -2.24607e-21)
(-2.30961 -0.0267961 -4.13722e-20)
(-2.28431 -0.0280607 -3.80695e-20)
(-2.25769 -0.0292979 -4.06711e-20)
(-2.22975 -0.0304848 3.95832e-20)
(-2.20052 -0.0316425 -5.54846e-21)
(-2.17001 -0.0327509 -2.30838e-20)
(-2.13827 -0.0338252 -4.6871e-21)
(-2.10531 -0.0348489 -2.59771e-20)
(-2.07115 -0.0358327 -3.24532e-20)
(-2.03584 -0.0367647 -1.55912e-20)
(-1.9994 -0.0376532 7.72483e-21)
(-1.96186 -0.0384921 5.60163e-21)
(-1.92325 -0.0392953 5.33489e-21)
(-1.88358 -0.040076 -4.86762e-21)
(-1.84287 -0.0408443 1.94315e-20)
(-1.80113 -0.0415887 -3.12848e-22)
(-1.75841 -0.0422802 -6.25026e-23)
(-1.71481 -0.0428831 -4.03213e-21)
(-1.67036 -0.0434113 7.88186e-21)
(-1.62507 -0.0438793 5.20777e-21)
(-1.57898 -0.0442952 -1.22541e-20)
(-1.53212 -0.044662 -4.39236e-21)
(-1.48454 -0.0449832 -2.55178e-20)
(-1.43627 -0.045261 -1.72545e-20)
(-1.38734 -0.0454976 4.04256e-20)
(-1.33779 -0.0456957 6.88201e-20)
(-1.28766 -0.0458571 -9.94463e-20)
(-1.23697 -0.0459842 3.16981e-20)
(-1.18576 -0.0460777 6.47292e-21)
(-1.13406 -0.0461387 -1.89262e-19)
(-1.08189 -0.0461663 4.79424e-21)
(-1.02931 -0.0461612 3.10789e-21)
(-0.976326 -0.046125 -6.68967e-20)
(-0.922986 -0.0460619 8.69636e-20)
(-0.869314 -0.0459765 1.25672e-19)
(-0.815331 -0.0458755 1.33861e-19)
(-0.761056 -0.045764 1.21635e-19)
(-0.706497 -0.0456485 -1.84886e-19)
(-0.65166 -0.0455334 2.40963e-20)
(-0.596544 -0.0454234 -5.30037e-20)
(-0.541143 -0.0453191 1.46312e-19)
(-0.485454 -0.0452216 -4.55191e-20)
(-0.429472 -0.0451293 1.88978e-19)
(-0.373194 -0.0450439 -1.9287e-19)
(-0.316618 -0.044966 -3.0694e-19)
(-0.259736 -0.0448991 -4.80801e-19)
(-0.202541 -0.0448426 -2.32903e-19)
(-0.145028 -0.0447962 -1.08187e-19)
(-0.087196 -0.0447491 5.33698e-20)
(-0.029068 -0.0446779 3.34745e-20)
(0.0293051 -0.0445284 -3.93521e-19)
(0.0878274 -0.0442316 -3.63997e-19)
(0.146231 -0.0436629 5.00527e-19)
(0.204452 -0.0425981 6.09083e-19)
(0.260339 -0.040537 5.68854e-19)
(0.319129 -0.0366233 2.85295e-19)
(0.356081 -0.0246714 -6.11358e-19)
(0.000629635 0.0213947 2.87211e-19)
(0.00051349 0.0382733 2.73425e-18)
(0.00574683 0.0320514 2.8405e-18)
(0.0238178 0.00159579 -1.94616e-18)
(0.0602147 -0.0533149 3.4725e-19)
(0.108914 -0.11598 -1.57028e-19)
(0.160472 -0.168254 -6.30119e-20)
(0.207766 -0.200578 4.7106e-19)
(0.247635 -0.212276 3.63385e-19)
(0.279638 -0.207564 2.983e-19)
(0.304733 -0.191864 1.33391e-19)
(0.324287 -0.169869 1.25884e-19)
(0.339499 -0.144902 -4.00138e-19)
(0.351258 -0.118992 -2.47883e-19)
(0.360139 -0.0932697 8.89563e-20)
(0.366551 -0.0682894 -1.92631e-19)
(0.37076 -0.0442773 1.88566e-19)
(0.37298 -0.0213128 2.84067e-20)
(0.373396 0.000613466 2.82165e-19)
(0.372355 0.0216154 2.45484e-19)
(0.370109 0.0418613 -2.32054e-19)
(0.366879 0.06138 -6.24344e-19)
(0.362684 0.0799432 -1.12549e-19)
(0.357261 0.0970108 -7.28316e-19)
(0.350056 0.111686 1.64201e-19)
(0.340285 0.12277 2.59674e-19)
(0.327144 0.128884 -1.06105e-19)
(0.310079 0.128774 3.77464e-19)
(0.289225 0.121673 2.12939e-19)
(0.265605 0.107593 5.03513e-19)
(0.241227 0.0873346 -2.73913e-19)
(0.218647 0.0621775 -1.93055e-19)
(0.200447 0.0334529 1.09235e-19)
(0.187989 0.00245485 -1.47024e-19)
(0.181914 -0.0297714 -2.0743e-19)
(0.180136 -0.0588891 -1.26631e-20)
(0.175619 -0.0751074 -5.98312e-19)
(0.162908 -0.0724223 1.93079e-19)
(0.141657 -0.0544966 -4.65532e-19)
(0.112865 -0.0282259 -1.6203e-19)
(0.0768644 0.00235339 1.53228e-19)
(0.0314382 0.0332388 -1.79874e-19)
(-0.0340798 0.0626521 -3.4257e-19)
(-0.127395 0.10175 6.89655e-19)
(-0.24194 0.153121 5.59718e-19)
(-0.372871 0.210127 -2.86924e-19)
(-0.514083 0.267187 1.04617e-19)
(-0.657793 0.319984 -1.01407e-19)
(-0.79728 0.363923 -1.55034e-19)
(-0.929079 0.398115 -6.70557e-20)
(-1.04955 0.421354 -6.55405e-20)
(-1.15749 0.433139 1.15046e-19)
(-1.25235 0.434224 1.8484e-20)
(-1.33399 0.425777 8.06236e-20)
(-1.40339 0.409245 8.91855e-21)
(-1.46251 0.386507 9.95229e-21)
(-1.51374 0.35983 4.20763e-20)
(-1.55935 0.331447 6.4721e-20)
(-1.60075 0.303166 -1.08361e-20)
(-1.63931 0.276064 2.07353e-19)
(-1.6759 0.250746 1.49044e-19)
(-1.71117 0.227784 3.4447e-20)
(-1.74547 0.207271 7.69841e-20)
(-1.77893 0.189195 -1.79349e-19)
(-1.81157 0.173405 2.66011e-20)
(-1.84338 0.159621 1.04036e-19)
(-1.87432 0.147559 -1.67218e-19)
(-1.90441 0.136957 -7.5903e-20)
(-1.93362 0.12759 5.10355e-20)
(-1.96192 0.119242 3.99896e-20)
(-1.9893 0.111747 -8.49793e-20)
(-2.01574 0.104944 1.46937e-19)
(-2.04125 0.0987221 1.72158e-20)
(-2.06581 0.0929696 5.31675e-20)
(-2.08941 0.0876161 -1.74783e-19)
(-2.11206 0.0825867 1.69482e-19)
(-2.13375 0.0778399 3.56746e-20)
(-2.15448 0.0733283 -7.37417e-20)
(-2.17425 0.0690278 -1.34414e-19)
(-2.19305 0.0649088 -6.67891e-20)
(-2.21089 0.0609545 1.07436e-20)
(-2.22777 0.0571479 2.89178e-20)
(-2.2437 0.0534772 -1.37141e-20)
(-2.25867 0.0499337 -1.02354e-19)
(-2.27271 0.046503 -2.80548e-20)
(-2.28581 0.0431825 -3.11847e-20)
(-2.298 0.0399605 1.87167e-20)
(-2.30932 0.036843 -6.46676e-20)
(-2.3198 0.0338254 -9.27252e-20)
(-2.32946 0.0309161 -1.14176e-19)
(-2.33826 0.0281232 3.69003e-20)
(-2.34618 0.0254419 -1.3475e-19)
(-2.35322 0.0228576 1.30964e-19)
(-2.35943 0.0203517 1.13113e-20)
(-2.36482 0.0179136 -3.08702e-20)
(-2.36939 0.0155305 -5.7416e-20)
(-2.37316 0.0131998 1.98138e-20)
(-2.37614 0.010911 9.53851e-20)
(-2.37835 0.00866552 7.84446e-20)
(-2.3798 0.00645862 3.46965e-20)
(-2.3805 0.00429534 4.16182e-20)
(-2.38045 0.00217386 2.07378e-20)
(-2.37961 7.42761e-05 1.91387e-20)
(-2.37795 -0.00204016 -2.6464e-19)
(-2.37541 -0.0041807 5.19739e-20)
(-2.37199 -0.00633099 4.70029e-20)
(-2.36764 -0.00849302 -9.14014e-20)
(-2.36233 -0.010664 7.75722e-20)
(-2.35603 -0.0128493 -2.58165e-20)
(-2.34869 -0.0150455 1.12196e-19)
(-2.3403 -0.0172571 8.16776e-20)
(-2.33081 -0.0194794 5.75867e-20)
(-2.32019 -0.0217144 -3.8025e-20)
(-2.30842 -0.0239571 4.59017e-20)
(-2.29547 -0.0262079 2.95249e-20)
(-2.2813 -0.0284624 -3.58055e-20)
(-2.2659 -0.030714 -5.37502e-20)
(-2.24924 -0.0329519 1.68249e-19)
(-2.23131 -0.0351727 2.50731e-20)
(-2.21211 -0.03738 -5.78643e-20)
(-2.19165 -0.0395733 -1.45696e-19)
(-2.16995 -0.0417515 -1.84886e-20)
(-2.14698 -0.043897 -1.23094e-21)
(-2.12273 -0.045996 -5.1388e-20)
(-2.09717 -0.0480338 5.40071e-21)
(-2.07033 -0.0500105 4.07178e-20)
(-2.0422 -0.05192 -1.1163e-19)
(-2.01281 -0.0537653 3.69956e-20)
(-1.98219 -0.0555401 1.45182e-20)
(-1.95036 -0.0572457 5.55699e-20)
(-1.91734 -0.0588753 -1.49816e-20)
(-1.88315 -0.0604286 3.09274e-20)
(-1.84784 -0.0619001 7.39654e-20)
(-1.81141 -0.0632894 7.11731e-21)
(-1.77392 -0.0645909 -2.5164e-20)
(-1.73537 -0.0658045 5.87401e-21)
(-1.69581 -0.0669343 3.95607e-21)
(-1.65524 -0.0679911 -6.18934e-21)
(-1.61369 -0.0689836 -5.03259e-21)
(-1.57123 -0.0699238 -5.41173e-22)
(-1.52791 -0.0707883 1.23546e-21)
(-1.48374 -0.0715573 -2.10131e-20)
(-1.43876 -0.0722367 -3.51475e-21)
(-1.39299 -0.0728326 -4.18829e-21)
(-1.34647 -0.0733488 -9.20821e-21)
(-1.29924 -0.0737899 4.63828e-20)
(-1.25133 -0.0741589 -1.40558e-20)