/*--------------------------------*- C++ -*----------------------------------*\
  =========                 |
  \\      /  F ield         | OpenFOAM: The Open Source CFD Toolbox
   \\    /   O peration     | Website:  https://openfoam.org
    \\  /    A nd           | Version:  13
     \\/     M anipulation  |
\*---------------------------------------------------------------------------*/
FoamFile
{
    format      ascii;
    class       volScalarField;
    location    "500";
    object      k;
}
// * * * * * * * * * * * * * * * * * * * * * * * * * * * * * * * * * * * * * //

dimensions      [0 2 -2 0 0 0 0];

internalField   nonuniform List<scalar> 
12225
(
0.566972
1.67256
2.32019
3.38343
3.66912
3.45484
2.55904
2.07164
1.94539
1.93815
1.74218
1.61523
1.47869
1.78882
1.2418
2.4025
2.07625
1.63394
0.354377
0.43648
0.473853
0.585326
0.611543
0.678073
0.726911
0.72239
0.750138
0.761224
0.778086
0.779455
0.798541
0.835817
0.817692
0.838597
0.854505
0.837819
0.371537
0.371331
0.325621
0.260941
0.208211
0.202023
0.209048
0.210032
0.189633
0.192649
0.180692
0.190601
0.196062
0.198755
0.19313
0.18718
0.199189
0.18972
0.37371
0.370601
0.351197
0.309862
0.262272
0.219684
0.186593
0.157102
0.131364
0.110927
0.0942435
0.0824609
0.0740036
0.0672466
0.0634315
0.0575131
0.0577247
0.0581575
0.374057
0.37098
0.36524
0.344658
0.317055
0.28395
0.249113
0.217063
0.190317
0.168329
0.152243
0.13903
0.131505
0.124188
0.120729
0.115109
0.112804
0.108363
0.373843
0.371358
0.368554
0.359058
0.342152
0.324342
0.29982
0.280168
0.258975
0.243844
0.228516
0.21653
0.206826
0.20158
0.196185
0.193646
0.188801
0.18746
0.373766
0.37164
0.369566
0.364546
0.355648
0.345138
0.332105
0.32036
0.30958
0.300165
0.293351
0.286218
0.281675
0.276354
0.273458
0.268902
0.266532
0.261879
0.373781
0.371644
0.369651
0.366362
0.361244
0.355006
0.347974
0.340831
0.334884
0.329123
0.325233
0.320834
0.318044
0.314118
0.311814
0.307876
0.305676
0.301565
0.373822
0.37157
0.369579
0.367063
0.363842
0.359913
0.355794
0.351455
0.347667
0.343889
0.341013
0.337915
0.335666
0.332804
0.330795
0.3279
0.325942
0.322906
0.373842
0.371549
0.369504
0.367318
0.364934
0.362204
0.359416
0.356512
0.353857
0.351186
0.348938
0.346606
0.344687
0.342513
0.340747
0.338569
0.336897
0.334655
0.373841
0.371549
0.369457
0.367391
0.365336
0.363181
0.36103
0.358845
0.35679
0.354736
0.352887
0.351018
0.349364
0.347612
0.346085
0.344361
0.342928
0.341204
0.373838
0.371552
0.36943
0.367388
0.365435
0.363496
0.36161
0.359738
0.357961
0.356208
0.354578
0.352961
0.351476
0.349963
0.348592
0.347135
0.345854
0.344428
0.373832
0.371555
0.369415
0.367377
0.365448
0.363587
0.36181
0.360084
0.358443
0.356847
0.355343
0.353873
0.352498
0.351134
0.349868
0.348582
0.347407
0.346179
0.373829
0.371555
0.369407
0.367366
0.365436
0.363596
0.361849
0.360178
0.35859
0.357065
0.355619
0.354226
0.352907
0.351629
0.350421
0.349239
0.348127
0.347026
0.373827
0.371553
0.3694
0.367358
0.365422
0.363583
0.361838
0.360177
0.358598
0.357094
0.355662
0.354295
0.352993
0.351747
0.35056
0.349422
0.348336
0.347293
0.373826
0.371551
0.369396
0.36735
0.365411
0.363569
0.361821
0.360158
0.358578
0.357072
0.355642
0.354276
0.352976
0.351734
0.350552
0.349421
0.348344
0.347313
0.373825
0.37155
0.369392
0.367345
0.365403
0.363559
0.361807
0.360142
0.358558
0.357051
0.355616
0.354249
0.352945
0.351703
0.350518
0.349388
0.348308
0.347279
0.373825
0.371549
0.36939
0.367343
0.365399
0.363553
0.361799
0.360132
0.358546
0.357037
0.355599
0.35423
0.352924
0.35168
0.350492
0.34936
0.348278
0.347248
0.373825
0.371549
0.36939
0.367343
0.365398
0.363552
0.361797
0.360129
0.358542
0.357031
0.355592
0.354222
0.352915
0.35167
0.350481
0.349348
0.348266
0.347233
0.373825
0.371551
0.369392
0.367346
0.365402
0.363558
0.361803
0.360137
0.358549
0.35704
0.355601
0.354232
0.352925
0.35168
0.350491
0.349359
0.348276
0.347244
0.373826
0.371552
0.369396
0.367351
0.365411
0.363567
0.361815
0.36015
0.358566
0.357057
0.355621
0.354252
0.352948
0.351703
0.350517
0.349384
0.348305
0.347272
0.373826
0.371556
0.369402
0.36736
0.365422
0.363582
0.361834
0.360173
0.358591
0.357086
0.355652
0.354286
0.352984
0.351742
0.350557
0.349426
0.348345
0.347313
0.373827
0.371562
0.369409
0.367375
0.365439
0.363609
0.361865
0.360213
0.358635
0.357134
0.355698
0.354332
0.353025
0.351781
0.350589
0.349451
0.348359
0.347314
0.373827
0.371571
0.369418
0.367403
0.365475
0.363671
0.361937
0.360302
0.358718
0.35721
0.355748
0.354356
0.353013
0.351734
0.350499
0.349316
0.348168
0.347066
0.373829
0.371581
0.36944
0.367492
0.365604
0.363876
0.362154
0.360539
0.358894
0.357322
0.355741
0.354237
0.352753
0.351347
0.349961
0.348641
0.347323
0.346066
0.373843
0.371602
0.369604
0.3679
0.366173
0.364625
0.36289
0.361233
0.359355
0.357542
0.355613
0.353779
0.351917
0.350183
0.348415
0.346791
0.345071
0.343521
0.373928
0.371936
0.370761
0.369897
0.36867
0.367423
0.365615
0.363698
0.361194
0.358702
0.355935
0.353272
0.350605
0.348148
0.34567
0.343508
0.341119
0.339168
0.374798
0.374899
0.378013
0.380507
0.38072
0.380441
0.379445
0.376827
0.373374
0.36947
0.365723
0.361849
0.358994
0.356145
0.354468
0.352832
0.351983
0.350968
0.389058
0.40684
0.441872
0.468113
0.488944
0.502575
0.514937
0.52261
0.531491
0.537375
0.546676
0.554786
0.567286
0.578474
0.593884
0.607952
0.62245
0.635529
0.717083
1.16123
1.43062
1.56014
1.60469
1.60179
1.58555
1.55198
1.51378
1.47502
1.43789
1.40341
1.37206
1.34405
1.31889
1.297
1.27745
1.26039
1.52296e-08
3.76612e-07
1.94563e-06
7.78841e-06
2.64689e-05
8.21673e-05
0.000218774
0.000444382
0.000729956
0.00103582
0.00131371
0.00153679
0.00168812
0.0017634
0.00174875
0.0016958
0.0015728
0.00138155
0.00117836
0.00101033
0.000852117
0.000699383
0.000548294
0.000407526
0.000277061
0.000170342
9.46403e-05
4.89488e-05
2.49271e-05
1.32253e-05
7.62431e-06
5.04777e-06
4.27772e-06
6.71325e-06
1.04658e-05
5.87801e-05
0.000136597
0.000395216
0.000773511
0.00108413
0.00109797
0.000996065
0.000781245
0.0006635
0.000677487
0.000802298
0.00100049
0.00156275
0.00268465
0.00652528
0.0199165
0.0532842
0.0949646
0.128974
0.142859
0.14036
0.12829
0.172993
0.166008
0.150607
0.144239
0.143086
0.149838
0.157082
0.172271
0.178472
0.188271
0.19606
0.204613
0.212422
0.220472
0.228135
0.235864
0.243377
0.250874
0.25824
0.265557
0.272778
0.279938
0.287015
0.294029
0.300959
0.307827
0.314608
0.321327
0.327952
0.334514
0.340971
0.347354
0.353627
0.359799
0.365867
0.371819
0.377654
0.383357
0.388925
0.394344
0.399607
0.404705
0.409631
0.414397
0.419028
0.423582
0.427949
0.432201
0.436302
0.440274
0.444097
0.447775
0.451303
0.454671
0.457887
0.460928
0.463817
0.466515
0.469059
0.471398
0.473576
0.47555
0.477365
0.47897
0.480392
0.481581
0.482585
0.483359
0.483965
0.484355
0.484593
0.484627
0.484517
0.483928
0.483575
0.482249
0.48145
0.479869
0.478581
0.477106
0.475396
0.473417
0.47129
0.468968
0.466498
0.463878
0.461136
0.458274
0.455313
0.452258
0.449126
0.445927
0.442671
0.439373
0.436037
0.432679
0.429299
0.425916
0.422528
0.419154
0.415797
0.412479
0.40921
0.406
0.402854
0.399773
0.396759
0.393805
0.390914
0.388077
0.385304
0.382583
0.379926
0.377311
0.374741
0.372189
0.369639
0.367013
0.364239
0.361172
0.357511
0.352593
0.337137
7.1797e-08
2.0199e-06
1.38086e-05
6.07818e-05
0.000225694
0.000695146
0.00162198
0.00298964
0.00459171
0.00625558
0.00779108
0.00907694
0.0100404
0.0106845
0.0110162
0.0110071
0.0108429
0.0105695
0.0100574
0.00933897
0.00838821
0.00727781
0.00599978
0.00472371
0.0033728
0.00228813
0.00148206
0.000930398
0.000570952
0.000347255
0.000217033
0.000146554
0.000114288
0.000126688
9.50077e-05
0.000690273
0.00145207
0.00404711
0.0074212
0.010156
0.0113928
0.0112522
0.0106968
0.0107959
0.0125055
0.0165936
0.021965
0.0318902
0.0493179
0.0754873
0.100614
0.126511
0.146948
0.163238
0.176296
0.188187
0.202366
0.220298
0.235864
0.252887
0.271142
0.289653
0.309023
0.328924
0.348632
0.367558
0.386564
0.405051
0.423448
0.441526
0.459477
0.477231
0.494873
0.512389
0.529818
0.54716
0.564433
0.581636
0.598778
0.615856
0.632873
0.649822
0.666706
0.683513
0.700246
0.716887
0.73344
0.74988
0.766211
0.782397
0.798443
0.814334
0.83006
0.845607
0.860956
0.876092
0.890991
0.905636
0.919993
0.934033
0.947709
0.960974
0.973812
0.986436
0.998816
1.01093
1.0228
1.03438
1.04569
1.0567
1.06741
1.07781
1.08788
1.09761
1.10701
1.11604
1.1247
1.13297
1.14086
1.14835
1.15543
1.16205
1.1682
1.17387
1.17905
1.18374
1.18794
1.19165
1.19486
1.19759
1.19981
1.20145
1.20247
1.20296
1.20301
1.20289
1.20218
1.2012
1.19995
1.19819
1.19594
1.19323
1.19009
1.18656
1.18264
1.17838
1.17381
1.16894
1.1638
1.15843
1.15285
1.14707
1.14114
1.13505
1.12885
1.12254
1.11615
1.10969
1.10322
1.09673
1.09027
1.08383
1.07742
1.07104
1.0647
1.05837
1.05206
1.04576
1.03947
1.0332
1.02691
1.02061
1.01425
1.00779
1.00113
0.994139
0.98658
0.978136
0.966743
0.940665
2.0445e-07
6.15243e-06
4.70633e-05
0.00022535
0.000660766
0.0018993
0.00390404
0.00626363
0.00865204
0.0108374
0.0126773
0.0141131
0.0151355
0.015775
0.0160836
0.0160718
0.0159421
0.0156391
0.0151625
0.0145582
0.0138213
0.0129477
0.0119185
0.0107122
0.00939497
0.00784457
0.00617037
0.00458198
0.00318421
0.00210957
0.00141853
0.0010178
0.000749456
0.000736568
0.000870218
0.00286223
0.00703098
0.0152514
0.0227552
0.0281468
0.0312505
0.0325421
0.0352431
0.0429841
0.0589375
0.0761591
0.0940326
0.114597
0.136019
0.156046
0.177375
0.198209
0.219216
0.240974
0.264694
0.291711
0.320362
0.34924
0.377557
0.406093
0.434438
0.462502
0.490176
0.517281
0.543635
0.569414
0.594689
0.619493
0.64393
0.668031
0.691873
0.715487
0.738919
0.762197
0.785344
0.808377
0.831307
0.85414
0.87688
0.899527
0.922077
0.944525
0.966867
0.989093
1.0112
1.03316
1.05499
1.07665
1.09814
1.11943
1.14051
1.16137
1.182
1.20238
1.2225
1.24234
1.26189
1.28113
1.30006
1.31866
1.33693
1.35489
1.37253
1.38986
1.40686
1.4235
1.43977
1.45567
1.47117
1.48627
1.50095
1.51519
1.529
1.54235
1.55523
1.56761
1.57951
1.59088
1.60174
1.61206
1.62183
1.63099
1.63954
1.64745
1.65471
1.66132
1.66726
1.67253
1.67712
1.681
1.6842
1.68669
1.68841
1.68951
1.68994
1.69008
1.68929
1.68787
1.68582
1.6831
1.67974
1.67576
1.6712
1.66609
1.66048
1.65439
1.64788
1.64096
1.63369
1.62609
1.61821
1.61006
1.60169
1.59313
1.58439
1.57551
1.5665
1.5574
1.54822
1.539
1.52976
1.5205
1.51124
1.50198
1.4927
1.48342
1.4741
1.46476
1.45539
1.44599
1.43656
1.42708
1.41752
1.40785
1.398
1.38786
1.37723
1.36586
1.35169
1.32711
7.42386e-07
2.23768e-05
0.000175243
0.00074245
0.00211148
0.0050713
0.00862562
0.0121201
0.0151782
0.0176235
0.0194135
0.0205894
0.0212377
0.0214393
0.0213559
0.0210822
0.0205855
0.0199715
0.0192703
0.0185019
0.0176685
0.0167687
0.0157887
0.0147046
0.0135038
0.0121585
0.0106585
0.00905485
0.0074573
0.00592044
0.00456073
0.00351917
0.00280524
0.00314744
0.00560229
0.0139047
0.0281137
0.0408816
0.0508532
0.0586584
0.0665823
0.0770353
0.0907455
0.106505
0.121778
0.137587
0.15475
0.174967
0.196497
0.219838
0.245463
0.27265
0.301874
0.332791
0.365218
0.398675
0.432561
0.466331
0.49986
0.533045
0.565785
0.59802
0.62967
0.660715
0.691164
0.721101
0.750582
0.779669
0.808426
0.836906
0.865158
0.893221
0.92113
0.948909
0.976578
1.00415
1.03163
1.05903
1.08633
1.11354
1.14066
1.16766
1.19455
1.2213
1.24791
1.27437
1.30064
1.32673
1.35261
1.37826
1.40366
1.42879
1.45364
1.4782
1.50245
1.52638
1.54997
1.57322
1.5961
1.61862
1.64076
1.66252
1.6839
1.70486
1.72539
1.74549
1.76512
1.78427
1.80293
1.82108
1.8387
1.8558
1.87234
1.88831
1.90371
1.9185
1.93269
1.94625
1.95918
1.97145
1.98304
1.99391
2.00404
2.0134
2.022
2.0298
2.0368
2.04299
2.04835
2.05288
2.05656
2.05941
2.06137
2.06253
2.06298
2.06286
2.0617
2.05973
2.05697
2.05343
2.04914
2.04412
2.03841
2.03206
2.02511
2.0176
2.00956
2.00106
1.99211
1.98277
1.97308
1.96306
1.95276
1.94221
1.93144
1.92047
1.90933
1.89805
1.88665
1.87515
1.86358
1.85196
1.8403
1.82859
1.81683
1.80502
1.79314
1.7812
1.76919
1.75712
1.74498
1.73279
1.72051
1.70812
1.69559
1.68287
1.66981
1.65624
1.64043
1.61729
2.49981e-06
7.49761e-05
0.000565305
0.00214262
0.005971
0.0112589
0.0162396
0.0202721
0.0231808
0.0250516
0.0260696
0.0264483
0.0263721
0.0260445
0.0254278
0.0246803
0.0238539
0.0229871
0.0221027
0.0212112
0.0203103
0.0193932
0.018445
0.0174437
0.0163669
0.0151854
0.0138792
0.0124634
0.0110148
0.00960908
0.00813371
0.00710496
0.00793371
0.013065
0.0270448
0.0463808
0.0641766
0.0787988
0.0905919
0.101199
0.11209
0.123819
0.136413
0.149862
0.165152
0.183623
0.205071
0.229352
0.256232
0.285313
0.316379
0.348964
0.382918
0.41783
0.453421
0.489386
0.525496
0.561534
0.597424
0.63306
0.668383
0.703342
0.737891
0.772026
0.805762
0.839139
0.872191
0.904963
0.937497
0.969835
1.00201
1.03406
1.066
1.09786
1.12965
1.16137
1.19303
1.22463
1.25615
1.2876
1.31895
1.3502
1.38133
1.41232
1.44316
1.47382
1.5043
1.53456
1.56458
1.59436
1.62384
1.65303
1.68189
1.71043
1.7386
1.76641
1.79383
1.82085
1.84745
1.87361
1.89933
1.92458
1.94935
1.97361
1.99737
2.02058
2.04324
2.06533
2.08682
2.10771
2.12797
2.14759
2.16655
2.18484
2.20245
2.21935
2.23553
2.25099
2.26569
2.27963
2.29277
2.30508
2.31654
2.32714
2.33684
2.34563
2.35351
2.36045
2.36645
2.37149
2.37556
2.37869
2.38081
2.38195
2.38236
2.38195
2.38043
2.37798
2.37461
2.37035
2.36524
2.3593
2.35258
2.34513
2.33698
2.32818
2.31879
2.30884
2.29838
2.28746
2.27611
2.26438
2.2523
2.23991
2.22724
2.21433
2.2012
2.18787
2.17437
2.16073
2.14698
2.13312
2.11918
2.10516
2.09105
2.07685
2.06255
2.04815
2.03365
2.01906
2.0044
1.98965
1.97483
1.95993
1.94493
1.92984
1.91457
1.899
1.88171
1.8589
7.84833e-06
0.000230005
0.00165037
0.00588521
0.0135137
0.0203411
0.0252894
0.0284131
0.0301132
0.0308278
0.0308459
0.0305317
0.0298311
0.0289247
0.0279125
0.0268575
0.0258028
0.0247762
0.0237905
0.0228476
0.0219388
0.0210512
0.0201638
0.0192489
0.0182824
0.0172238
0.0160245
0.01464
0.0130753
0.011814
0.0121018
0.015162
0.0248717
0.0440859
0.0670431
0.088014
0.104856
0.117375
0.127059
0.135871
0.145251
0.155957
0.169447
0.186169
0.206153
0.229636
0.256206
0.285287
0.316357
0.348941
0.382778
0.417583
0.453178
0.489371
0.526027
0.563019
0.600251
0.637616
0.675043
0.712449
0.749767
0.786948
0.823957
0.860773
0.897395
0.933831
0.9701
1.00622
1.04223
1.07814
1.11398
1.14977
1.18554
1.22128
1.25701
1.29273
1.32842
1.3641
1.39973
1.43531
1.47082
1.50623
1.54154
1.5767
1.61171
1.64654
1.68117
1.71557
1.74972
1.78357
1.81713
1.85034
1.8832
1.91568
1.94775
1.9794
2.01061
2.04134
2.07159
2.10133
2.13054
2.15919
2.18728
2.21477
2.24165
2.2679
2.29351
2.31844
2.34268
2.36621
2.38901
2.41107
2.43237
2.45289
2.47261
2.49153
2.50962
2.52687
2.54327
2.55879
2.57341
2.58709
2.59982
2.61157
2.62232
2.63206
2.64076
2.64842
2.65502
2.66054
2.665
2.66839
2.67066
2.6718
2.67213
2.67145
2.6696
2.66669
2.66276
2.65783
2.65193
2.64512
2.63743
2.6289
2.61959
2.60955
2.59883
2.58747
2.57553
2.56305
2.55007
2.53664
2.52279
2.50858
2.49404
2.47919
2.46407
2.44871
2.43312
2.41735
2.40141
2.38534
2.36914
2.35282
2.33639
2.31983
2.30315
2.28633
2.26939
2.25234
2.2352
2.21798
2.20069
2.18335
2.16598
2.1486
2.13116
2.11361
2.09472
2.07137
2.47422e-05
0.000682673
0.00447127
0.01391
0.0232286
0.0293277
0.0327657
0.0344653
0.0350506
0.0349239
0.0343397
0.0333433
0.0321422
0.0308382
0.0295095
0.028214
0.0269882
0.0258516
0.0248074
0.0238475
0.0229557
0.0221088
0.0212744
0.0204097
0.0194874
0.0185952
0.0178068
0.0173388
0.0177311
0.0203424
0.0275848
0.042267
0.0637952
0.0868437
0.107835
0.124325
0.135898
0.144178
0.151436
0.159476
0.170361
0.184722
0.202643
0.224201
0.249108
0.276922
0.306932
0.338546
0.371371
0.405159
0.43977
0.475091
0.511046
0.547574
0.584627
0.62216
0.660121
0.698441
0.737048
0.775877
0.814868
0.85397
0.893137
0.932338
0.971555
1.01078
1.05001
1.08925
1.12851
1.16781
1.20716
1.24657
1.28604
1.32558
1.36519
1.40485
1.44456
1.48429
1.52404
1.56377
1.60345
1.64307
1.68258
1.72197
1.76121
1.80026
1.8391
1.8777
1.91603
1.95405
1.99173
2.02904
2.06595
2.10243
2.13846
2.17401
2.20904
2.24354
2.27747
2.31082
2.34354
2.37563
2.40705
2.4378
2.46783
2.49713
2.52569
2.55348
2.58047
2.60664
2.63199
2.65648
2.6801
2.70283
2.72466
2.74557
2.76556
2.78459
2.80267
2.81975
2.83582
2.85085
2.86482
2.8777
2.88949
2.90014
2.90966
2.91801
2.9252
2.93121
2.93603
2.93967
2.94208
2.94324
2.94348
2.94252
2.94033
2.93697
2.93247
2.92686
2.92019
2.91249
2.90381
2.8942
2.88372
2.87241
2.86034
2.84755
2.83409
2.82001
2.80537
2.79021
2.77456
2.75849
2.74202
2.7252
2.70806
2.69061
2.67291
2.65497
2.63682
2.6185
2.60002
2.5814
2.56262
2.5437
2.52461
2.50538
2.486
2.46651
2.44691
2.42724
2.40752
2.38777
2.36804
2.34838
2.32876
2.30916
2.28849
2.26402
7.34861e-05
0.00186935
0.0105624
0.0237001
0.031971
0.0364374
0.038619
0.0393706
0.0392051
0.0384356
0.0371679
0.0356435
0.0339954
0.0323295
0.0307232
0.0292304
0.027879
0.0266774
0.0256174
0.024682
0.0238472
0.023084
0.0223468
0.0215891
0.0209164
0.0205448
0.0210664
0.023589
0.0299293
0.0424037
0.0606732
0.0816662
0.102713
0.121602
0.136495
0.146942
0.154368
0.161178
0.169739
0.181354
0.196599
0.215586
0.23806
0.263643
0.29174
0.32172
0.353014
0.385285
0.41836
0.452163
0.486661
0.521838
0.55769
0.594219
0.631422
0.669278
0.707749
0.74679
0.786351
0.826374
0.866804
0.907585
0.948672
0.990023
1.03161
1.07341
1.11541
1.1576
1.19997
1.24254
1.2853
1.32826
1.37139
1.41471
1.45819
1.50181
1.54556
1.58941
1.63333
1.67728
1.72122
1.76512
1.80894
1.85265
1.89622
1.93959
1.98275
2.02566
2.06828
2.11056
2.15248
2.19399
2.23505
2.27564
2.31571
2.35524
2.39419
2.43253
2.47022
2.50724
2.54356
2.57915
2.61397
2.64801
2.68124
2.71365
2.7452
2.77587
2.80564
2.83448
2.86238
2.88932
2.91527
2.94022
2.96415
2.98706
3.00892
3.02973
3.04946
3.06808
3.08559
3.10194
3.11712
3.13111
3.14389
3.15544
3.16574
3.17477
3.18252
3.18897
3.19413
3.198
3.20051
3.20168
3.20177
3.20052
3.19796
3.19411
3.18901
3.18269
3.1752
3.16658
3.15688
3.14614
3.13444
3.12182
3.10834
3.09406
3.07903
3.06331
3.04695
3.03
3.0125
2.9945
2.97606
2.95721
2.93798
2.91841
2.89853
2.87838
2.85799
2.83739
2.8166
2.79563
2.77449
2.75318
2.73169
2.71003
2.68822
2.66628
2.64424
2.62214
2.6
2.57787
2.55579
2.53383
2.512
2.49028
2.46768
2.44165
0.000190093
0.00441975
0.0195878
0.0325066
0.0393149
0.0426187
0.0439053
0.043905
0.0431096
0.0416597
0.0398448
0.0378416
0.0357926
0.033813
0.0319838
0.0303574
0.0289586
0.0277919
0.0268506
0.0261193
0.0255898
0.0253046
0.0253517
0.0259295
0.0273534
0.0301517
0.0354439
0.0452239
0.059306
0.076294
0.0947641
0.112914
0.129065
0.142069
0.151868
0.159642
0.167353
0.176919
0.189496
0.20562
0.225255
0.248093
0.273637
0.301345
0.330649
0.361085
0.39235
0.424317
0.456951
0.490268
0.524296
0.559073
0.594635
0.631012
0.668212
0.706232
0.745058
0.784663
0.825008
0.866047
0.90773
0.950007
0.992829
1.03615
1.07994
1.12417
1.1688
1.21383
1.25924
1.30501
1.35115
1.39762
1.44443
1.49154
1.53893
1.58658
1.63445
1.6825
1.73068
1.77895
1.82726
1.87556
1.92381
1.97195
2.01996
2.06778
2.11538
2.16271
2.20972
2.25639
2.30265
2.34846
2.39378
2.43857
2.48278
2.52638
2.56932
2.61158
2.65311
2.69387
2.73384
2.77298
2.81125
2.84863
2.8851
2.92063
2.95519
2.98876
3.02131
3.05283
3.08328
3.11265
3.14091
3.16806
3.19407
3.21894
3.24265
3.26519
3.28653
3.30666
3.32554
3.34316
3.3595
3.37454
3.38826
3.40064
3.41165
3.42129
3.42954
3.43638
3.44181
3.44584
3.44839
3.44952
3.44938
3.44779
3.44479
3.4404
3.43463
3.42755
3.41918
3.40957
3.39877
3.38685
3.37386
3.35986
3.34491
3.32907
3.31241
3.29499
3.27685
3.25805
3.23865
3.21868
3.19821
3.17727
3.15591
3.13417
3.11207
3.08968
3.06701
3.0441
3.02098
2.99765
2.97413
2.95042
2.92651
2.90243
2.8782
2.85383
2.82937
2.80485
2.78031
2.7558
2.73138
2.70712
2.68305
2.65916
2.63453
2.6067
0.00042241
0.00894953
0.0287967
0.0404638
0.0460633
0.0485139
0.0491086
0.0485073
0.0470638
0.0450708
0.0427635
0.0403405
0.0379647
0.0357644
0.0338281
0.032209
0.0309366
0.0300079
0.029428
0.0291862
0.02929
0.0299591
0.0315445
0.0347053
0.0401523
0.0484618
0.0597718
0.0731833
0.0881442
0.103744
0.118848
0.132411
0.143908
0.153507
0.162067
0.171023
0.181804
0.195411
0.212204
0.232116
0.254797
0.279797
0.306632
0.334853
0.364075
0.394049
0.424658
0.455891
0.487786
0.520402
0.553808
0.588069
0.623237
0.65935
0.696439
0.73452
0.773593
0.813646
0.854655
0.896584
0.939394
0.98304
1.02748
1.07267
1.11856
1.16513
1.21234
1.26016
1.30857
1.35755
1.40707
1.45711
1.50763
1.55861
1.61
1.66176
1.71385
1.7662
1.81876
1.87147
1.92426
1.97707
2.02986
2.08256
2.13512
2.1875
2.23964
2.29149
2.34301
2.39414
2.44483
2.49502
2.54467
2.59373
2.64214
2.68986
2.73685
2.78306
2.82846
2.873
2.91664
2.95934
3.00107
3.04179
3.08148
3.1201
3.15765
3.19408
3.22938
3.26352
3.29647
3.32821
3.35873
3.388
3.41602
3.44278
3.46826
3.49244
3.5153
3.53683
3.557
3.57579
3.59319
3.60918
3.62373
3.63683
3.64846
3.65861
3.66725
3.67438
3.67999
3.68407
3.68657
3.68756
3.6871
3.6851
3.68157
3.67653
3.67002
3.66208
3.65274
3.64206
3.6301
3.6169
3.60254
3.58708
3.57059
3.55313
3.53477
3.51557
3.49559
3.47489
3.45352
3.43153
3.40898
3.38591
3.36237
3.3384
3.31406
3.28939
3.26442
3.23919
3.21372
3.18803
3.16212
3.13601
3.1097
3.08321
3.05657
3.0298
3.00294
2.97604
2.94913
2.92227
2.89552
2.86896
2.84264
2.81656
2.78985
2.76039
0.000805932
0.0155298
0.0370221
0.0476746
0.0525576
0.0544494
0.0545435
0.0534228
0.0514841
0.049041
0.0463562
0.0436561
0.0411257
0.0389096
0.0371122
0.0357904
0.0350426
0.0348256
0.0351362
0.0361708
0.0381712
0.0414516
0.0463328
0.0530365
0.0616552
0.0720804
0.0839552
0.0966796
0.109618
0.122116
0.133687
0.144153
0.153735
0.163116
0.173311
0.185302
0.199766
0.21696
0.236778
0.25892
0.283
0.308639
0.335482
0.363241
0.391708
0.420782
0.450448
0.480755
0.511776
0.543602
0.576318
0.609998
0.644707
0.680503
0.717429
0.755517
0.794782
0.835227
0.876843
0.919608
0.963494
1.00847
1.05449
1.10151
1.14951
1.19842
1.24822
1.29888
1.35034
1.40259
1.45558
1.50928
1.56363
1.61859
1.67409
1.73008
1.7865
1.84326
1.90032
1.95758
2.01496
2.07239
2.12982
2.18716
2.24438
2.3014
2.35816
2.4146
2.47067
2.52632
2.58148
2.63608
2.69008
2.74341
2.79601
2.84785
2.89886
2.949
2.99823
3.0465
3.09375
3.13995
3.18505
3.22903
3.27184
3.31347
3.35389
3.39307
3.43098
3.4676
3.50291
3.53689
3.56951
3.60077
3.63065
3.65914
3.68624
3.71191
3.73614
3.75891
3.78021
3.80001
3.8183
3.83506
3.85029
3.86395
3.87604
3.88654
3.89543
3.9027
3.90834
3.91233
3.91466
3.91538
3.91448
3.91193
3.90776
3.90197
3.89461
3.8857
3.8753
3.86345
3.85022
3.83567
3.81986
3.80286
3.78475
3.76559
3.74547
3.72443
3.70256
3.6799
3.65652
3.63247
3.60781
3.58257
3.55682
3.53061
3.504
3.47704
3.44978
3.42223
3.39442
3.36638
3.3381
3.30961
3.28092
3.25206
3.22305
3.19393
3.16473
3.13549
3.10626
3.07708
3.04804
3.0192
2.99064
2.96237
2.93358
2.90237
0.00130012
0.0225301
0.044629
0.054804
0.0592712
0.0607466
0.0604683
0.0589552
0.0566498
0.0539175
0.051066
0.0483519
0.0459787
0.0441114
0.0429242
0.042472
0.0426556
0.0436511
0.0455467
0.0484813
0.0525963
0.0580086
0.064758
0.0727955
0.0819879
0.0920731
0.102686
0.113435
0.124011
0.134235
0.144112
0.153873
0.16405
0.175312
0.188267
0.203317
0.220597
0.240008
0.261309
0.284208
0.308413
0.33367
0.359766
0.386551
0.413938
0.441913
0.470514
0.499824
0.529938
0.560955
0.592968
0.626067
0.66033
0.695827
0.732614
0.770737
0.810227
0.851102
0.893368
0.93702
0.982044
1.02842
1.0761
1.12506
1.17524
1.22662
1.27914
1.33275
1.38742
1.44308
1.4997
1.55721
1.61556
1.67467
1.73444
1.79481
1.85569
1.91701
1.97867
2.04058
2.10264
2.16477
2.22689
2.28894
2.35085
2.41255
2.47396
2.53501
2.59563
2.65575
2.71532
2.77427
2.83253
2.89004
2.94673
3.00256
3.05747
3.1114
3.16431
3.21613
3.26683
3.31634
3.36463
3.41165
3.45739
3.50179
3.54485
3.58653
3.62681
3.66566
3.70308
3.73903
3.77351
3.80649
3.83798
3.86796
3.89641
3.92332
3.94866
3.97243
3.9946
4.01515
4.03409
4.05138
4.06704
4.08104
4.09337
4.104
4.11293
4.12014
4.12562
4.12935
4.13134
4.13159
4.13013
4.12688
4.12191
4.11524
4.1069
4.09691
4.08534
4.07223
4.05764
4.04164
4.0243
4.0057
3.9859
3.96498
3.94303
3.92011
3.8963
3.87165
3.84624
3.8201
3.79331
3.76588
3.73791
3.70945
3.68059
3.65136
3.62182
3.59199
3.56189
3.53154
3.50094
3.47012
3.43911
3.40794
3.37664
3.34524
3.31378
3.28228
3.25079
3.21937
3.18809
3.15704
3.12628
3.09587
3.06503
3.03206
0.00190068
0.0288491
0.0517284
0.0619244
0.0662432
0.067504
0.0669697
0.0651768
0.0626435
0.0598237
0.0570817
0.0546994
0.0528658
0.0518305
0.0515308
0.0520231
0.0534006
0.0557015
0.0589674
0.0632207
0.0684843
0.0747268
0.0818577
0.0897543
0.0982623
0.107194
0.116387
0.125723
0.135179
0.144831
0.154919
0.16579
0.177848
0.191427
0.20673
0.223798
0.242544
0.262789
0.284323
0.306944
0.330474
0.354774
0.379741
0.405324
0.431508
0.458336
0.485877
0.514228
0.54349
0.573775
0.605183
0.637812
0.671755
0.707093
0.743898
0.782225
0.822117
0.863606
0.906717
0.951458
0.997827
1.04581
1.09537
1.14649
1.19912
1.25322
1.30872
1.36557
1.4237
1.48307
1.54358
1.60519
1.66778
1.73125
1.79549
1.8604
1.92587
1.99183
2.05816
2.12475
2.1915
2.25831
2.32511
2.39183
2.4584
2.52474
2.59074
2.65631
2.72136
2.78584
2.84964
2.91273
2.97504
3.0365
3.09704
3.1566
3.21512
3.27254
3.32883
3.38389
3.4377
3.49017
3.54129
3.59099
3.63927
3.68607
3.73138
3.77515
3.81738
3.85806
3.89717
3.9347
3.97062
4.00493
4.03762
4.06868
4.0981
4.12587
4.15194
4.17633
4.199
4.21997
4.23918
4.25668
4.27243
4.28644
4.29869
4.30917
4.31786
4.32476
4.32983
4.33308
4.33449
4.3341
4.33187
4.32774
4.32182
4.31412
4.30466
4.29348
4.28062
4.26615
4.25012
4.2326
4.21367
4.19339
4.17185
4.14913
4.12532
4.10048
4.0747
4.04805
4.02059
3.99238
3.96347
3.93387
3.90369
3.87303
3.84195
3.8105
3.77875
3.7467
3.71438
3.6818
3.64895
3.61588
3.58264
3.54927
3.51579
3.48222
3.44861
3.41496
3.38132
3.34776
3.31435
3.28118
3.24831
3.21583
3.183
3.14837
0.002671
0.0345268
0.05886
0.0692595
0.0735135
0.0746318
0.0738951
0.07191
0.0692554
0.0664969
0.0641051
0.0623499
0.0614568
0.0612345
0.0618088
0.0632681
0.0655931
0.0687644
0.0727547
0.077546
0.0830896
0.0893116
0.096138
0.103494
0.111319
0.119565
0.128228
0.137343
0.147029
0.157457
0.168839
0.181371
0.195218
0.210448
0.227054
0.244949
0.264011
0.284098
0.305079
0.326844
0.349308
0.372422
0.39616
0.42054
0.445596
0.471403
0.49805
0.525645
0.554294
0.584105
0.615183
0.647639
0.681572
0.717076
0.754234
0.793116
0.833784
0.876286
0.92066
0.966929
1.0151
1.06516
1.1171
1.17087
1.22642
1.28372
1.34268
1.40324
1.4653
1.52878
1.59356
1.65956
1.72665
1.79469
1.86354
1.93307
2.00315
2.0737
2.14461
2.21577
2.28708
2.35843
2.42975
2.50098
2.57203
2.64281
2.7132
2.78307
2.85232
2.92085
2.98854
3.0554
3.12136
3.18636
3.25032
3.31316
3.37482
3.43524
3.49437
3.55215
3.60851
3.66339
3.71675
3.76856
3.81878
3.86738
3.91434
3.95963
4.00325
4.04518
4.0854
4.12391
4.16068
4.19572
4.22902
4.26058
4.29039
4.31841
4.34466
4.36911
4.39176
4.41261
4.43164
4.44886
4.46427
4.47787
4.48964
4.49958
4.50767
4.51391
4.51828
4.52076
4.52134
4.52009
4.51681
4.51163
4.50459
4.49571
4.485
4.47251
4.45828
4.44236
4.42482
4.40572
4.38514
4.36316
4.33986
4.31532
4.28963
4.26287
4.23513
4.20648
4.177
4.14675
4.11578
4.08405
4.05174
4.01894
3.98572
3.95215
3.91827
3.8841
3.84967
3.81498
3.78
3.74482
3.70948
3.67404
3.63853
3.60295
3.56733
3.53168
3.49604
3.46048
3.42509
3.38994
3.3551
3.32069
3.286
3.24987
0.00348344
0.0403017
0.0658152
0.0765335
0.0808199
0.0818601
0.0809007
0.078635
0.0759505
0.0735234
0.071757
0.0708984
0.0707047
0.0712343
0.0725359
0.0746526
0.0775301
0.0811282
0.0854018
0.0903187
0.095838
0.101933
0.108588
0.115793
0.123568
0.131944
0.140994
0.150803
0.161487
0.173145
0.185861
0.199675
0.214598
0.230585
0.247564
0.265444
0.28414
0.303576
0.323693
0.344463
0.365871
0.387933
0.410674
0.434152
0.458439
0.483636
0.50983
0.537123
0.565628
0.595465
0.626759
0.65962
0.694168
0.730506
0.768736
0.808937
0.851184
0.895532
0.94203
0.990704
1.04156
1.09459
1.14974
1.20698
1.26624
1.32747
1.39057
1.45544
1.52195
1.58996
1.65932
1.72989
1.80154
1.87412
1.94748
2.02146
2.09589
2.17067
2.24576
2.32113
2.39661
2.4721
2.54756
2.62292
2.69806
2.77286
2.84718
2.92087
2.9938
3.06585
3.13692
3.20707
3.2762
3.3442
3.411
3.47651
3.54065
3.60339
3.66466
3.7244
3.78254
3.83903
3.89383
3.9469
3.99822
4.04778
4.09556
4.14156
4.18574
4.22809
4.26859
4.30723
4.34401
4.37893
4.41201
4.44323
4.47259
4.50008
4.52571
4.54946
4.57136
4.59139
4.60958
4.62589
4.64036
4.65297
4.66373
4.67262
4.67966
4.68482
4.6881
4.68949
4.68898
4.68648
4.68192
4.67547
4.66713
4.65691
4.64483
4.63092
4.61523
4.59779
4.57868
4.55797
4.53572
4.51202
4.48694
4.46058
4.43302
4.40435
4.37466
4.34403
4.31254
4.28027
4.24727
4.21355
4.17924
4.14444
4.10922
4.07364
4.03776
4.00162
3.96523
3.9286
3.89165
3.85453
3.81729
3.77997
3.74261
3.70521
3.66779
3.63034
3.59288
3.55553
3.51834
3.48141
3.4448
3.40862
3.37224
3.33485
0.00435526
0.0461764
0.0728144
0.0838014
0.088111
0.0890273
0.0878001
0.0854005
0.0829462
0.0810611
0.0801129
0.0798565
0.0802599
0.0813594
0.0831501
0.0856779
0.0888721
0.0927114
0.0971538
0.102206
0.10786
0.114135
0.121052
0.128655
0.136996
0.146128
0.156122
0.167015
0.178849
0.191608
0.20531
0.219905
0.235354
0.251567
0.268498
0.286082
0.304294
0.323114
0.34255
0.36263
0.383387
0.404883
0.427185
0.450405
0.474667
0.50007
0.526626
0.554493
0.583799
0.614695
0.647304
0.681764
0.718192
0.756711
0.797422
0.84041
0.885742
0.933452
0.98357
1.0361
1.09104
1.14833
1.20788
1.26961
1.33344
1.3993
1.46708
1.53668
1.60795
1.68068
1.75462
1.82958
1.90546
1.98219
2.05965
2.13764
2.21598
2.29456
2.37344
2.45244
2.53147
2.61043
2.68938
2.76826
2.84688
2.92501
3.00252
3.07925
3.15505
3.22987
3.30373
3.3765
3.44805
3.51825
3.58701
3.65422
3.71985
3.78383
3.84614
3.9067
3.96546
4.02236
4.07737
4.13046
4.18164
4.23088
4.27818
4.32355
4.36696
4.40841
4.4479
4.48542
4.52099
4.55462
4.58633
4.61611
4.64397
4.66992
4.69394
4.71606
4.73629
4.75462
4.77108
4.78566
4.79839
4.80927
4.81832
4.82551
4.83089
4.83444
4.83617
4.83607
4.83406
4.82986
4.82379
4.81584
4.80601
4.7943
4.78073
4.76531
4.74809
4.72911
4.70843
4.68611
4.66223
4.63685
4.61007
4.58196
4.55262
4.52213
4.49058
4.45806
4.42466
4.39046
4.35553
4.31997
4.28385
4.24721
4.21015
4.17272
4.13498
4.09699
4.05878
4.02036
3.98167
3.94282
3.90389
3.8649
3.82589