/*--------------------------------*- C++ -*----------------------------------*\
  =========                 |
  \\      /  F ield         | OpenFOAM: The Open Source CFD Toolbox
   \\    /   O peration     | Website:  https://openfoam.org
    \\  /    A nd           | Version:  13
     \\/     M anipulation  |
\*---------------------------------------------------------------------------*/
FoamFile
{
    format      ascii;
    class       volScalarField;
    location    "500";
    object      nut;
}
// * * * * * * * * * * * * * * * * * * * * * * * * * * * * * * * * * * * * * //

dimensions      [0 2 -1 0 0 0 0];

internalField   nonuniform List<scalar> 
12225
(
5.63812e-06
1.68918e-05
2.3854e-05
3.54809e-05
3.92286e-05
3.76218e-05
2.84112e-05
2.33949e-05
2.23317e-05
2.25984e-05
2.06013e-05
1.93578e-05
1.79283e-05
2.18854e-05
1.53061e-05
2.98205e-05
2.59318e-05
2.05643e-05
0.000246451
6.17936e-05
4.5178e-05
4.29238e-05
4.43989e-05
5.01601e-05
3.98726e-05
3.94464e-05
3.85791e-05
3.64242e-05
3.51664e-05
3.80968e-05
3.60187e-05
3.84724e-05
3.97992e-05
4.2983e-05
4.66091e-05
4.49174e-05
0.00110762
0.000248037
6.86851e-05
3.9834e-05
3.03638e-05
2.92311e-05
2.89816e-05
2.4218e-05
2.16897e-05
2.03912e-05
1.84463e-05
1.9992e-05
2.09259e-05
2.19148e-05
2.12405e-05
2.0567e-05
2.19327e-05
2.11634e-05
0.00132015
0.000512138
0.000188937
0.000111304
6.37442e-05
5.02379e-05
4.26124e-05
2.90381e-05
2.45741e-05
1.89495e-05
1.53193e-05
1.37378e-05
1.25818e-05
1.20236e-05
1.16727e-05
1.104e-05
1.13974e-05
1.17101e-05
0.000905344
0.000726963
0.000400047
0.000256885
0.000181042
0.00011667
8.39725e-05
7.08513e-05
6.29742e-05
5.31451e-05
4.80026e-05
4.34387e-05
4.0956e-05
3.83652e-05
3.47216e-05
3.09836e-05
3.08687e-05
3.03867e-05
0.00084265
0.000822225
0.000582148
0.000385594
0.000296546
0.000244945
0.000196873
0.000165884
0.000143998
0.000132992
0.000109612
9.22236e-05
8.39336e-05
7.98006e-05
7.83392e-05
7.66166e-05
7.56209e-05
7.6677e-05
0.000853572
0.000845464
0.000769533
0.000630398
0.000524708
0.000418738
0.000357578
0.000315208
0.000273163
0.000255744
0.000232106
0.000205959
0.000186514
0.000175039
0.000172212
0.000168731
0.000170382
0.000170648
0.000849177
0.000852015
0.000840678
0.000764332
0.00066653
0.000566274
0.00048723
0.000431196
0.000388397
0.000371665
0.000358469
0.000338692
0.000323187
0.00031007
0.000304884
0.00029935
0.000300352
0.000297853
0.000850532
0.000852614
0.000850652
0.000825165
0.000773908
0.000705276
0.000643785
0.000594095
0.000550315
0.00052555
0.000506235
0.000492059
0.000478734
0.00046762
0.000462488
0.000456309
0.000453896
0.000447975
0.000852266
0.000851635
0.000852954
0.000845701
0.000827713
0.000793992
0.000758027
0.000726676
0.000695469
0.00067334
0.000654466
0.000642332
0.000629856
0.000621399
0.000612997
0.000606736
0.000599761
0.000596439
0.000851659
0.000850645
0.000852124
0.00085125
0.000845821
0.000834784
0.000818109
0.00080373
0.000787608
0.000774447
0.000761796
0.000752682
0.000743549
0.000736573
0.000729864
0.00072206
0.000720398
0.000715831
0.000851762
0.000850306
0.000850816
0.000849372
0.000849652
0.000846416
0.000840445
0.000833759
0.000826735
0.000820293
0.000814168
0.000808243
0.000803254
0.000798331
0.00079436
0.000788986
0.00078559
0.000782855
0.000851705
0.000850489
0.000850125
0.000849143
0.000848611
0.00084756
0.000845775
0.000843509
0.000841044
0.00083861
0.000836261
0.000833979
0.000831904
0.000829829
0.000828055
0.000825885
0.000824549
0.000822081
0.000851584
0.000850647
0.000849895
0.00084909
0.00084841
0.000847652
0.000846878
0.000845938
0.000845027
0.000844015
0.000843147
0.000842176
0.000841407
0.000840461
0.000839757
0.000838763
0.000838085
0.000836992
0.000851547
0.000850671
0.000849867
0.000849074
0.000848355
0.000847636
0.000846977
0.000846295
0.000845671
0.00084502
0.000844442
0.000843835
0.000843307
0.000842741
0.000842247
0.000841702
0.000841221
0.000840682
0.000851539
0.000850673
0.000849856
0.000849072
0.000848335
0.000847626
0.000846959
0.000846312
0.000845705
0.000845114
0.00084456
0.000844019
0.000843511
0.000843015
0.000842548
0.000842091
0.000841658
0.000841234
0.000851537
0.000850673
0.000849852
0.000849069
0.000848327
0.000847618
0.000846945
0.000846302
0.00084569
0.000845104
0.000844546
0.00084401
0.0008435
0.00084301
0.000842543
0.000842094
0.000841666
0.000841255
0.000851539
0.000850677
0.000849857
0.000849077
0.000848334
0.000847627
0.000846952
0.000846309
0.000845695
0.000845109
0.000844549
0.000844013
0.000843501
0.00084301
0.000842541
0.000842092
0.000841662
0.000841251
0.000851537
0.000850674
0.000849851
0.000849069
0.000848324
0.000847615
0.000846938
0.000846293
0.000845677
0.000845089
0.000844527
0.000843989
0.000843475
0.000842984
0.000842513
0.000842062
0.000841631
0.000841218
0.000851537
0.000850673
0.000849852
0.00084907
0.000848325
0.000847616
0.00084694
0.000846295
0.000845679
0.000845092
0.000844529
0.000843992
0.000843478
0.000842986
0.000842515
0.000842065
0.000841633
0.00084122
0.000851536
0.000850677
0.000849855
0.000849076
0.000848332
0.000847627
0.000846951
0.000846309
0.000845694
0.000845108
0.000844545
0.000844008
0.000843491
0.000843
0.000842522
0.000842072
0.000841632
0.000841215
0.000851527
0.000850689
0.000849855
0.000849091
0.000848337
0.000847647
0.000846961
0.000846331
0.0008457
0.000845109
0.000844513
0.000843951
0.000843383
0.000842859
0.000842309
0.00084182
0.000841284
0.000840809
0.000851476
0.000850739
0.000849842
0.000849112
0.000848296
0.000847635
0.000846848
0.000846185
0.000845357
0.000844594
0.000843651
0.000842767
0.000841763
0.000840849
0.000839771
0.000838847
0.000837687
0.000836729
0.000851211
0.000851052
0.000849814
0.000848868
0.000847598
0.000846482
0.000844844
0.00084337
0.000841064
0.000838734
0.000835595
0.000832756
0.000829496
0.000826239
0.000822765
0.000819522
0.000815817
0.000812772
0.000850462
0.000853044
0.000848802
0.000844543
0.000838905
0.000833537
0.000826763
0.000820414
0.000810979
0.000801846
0.000790596
0.000780853
0.000769919
0.000760874
0.00075072
0.000742491
0.000732813
0.000725222
0.000853627
0.000859406
0.000832909
0.000808732
0.000783071
0.000763758
0.000738129
0.00071489
0.00068784
0.000665162
0.000640823
0.000621456
0.000601132
0.000585413
0.000568403
0.000555564
0.000540731
0.000530025
0.000901815
0.000850369
0.000740185
0.000645938
0.000580351
0.000531634
0.000485516
0.000450266
0.000416553
0.000391474
0.000367092
0.000349078
0.000331034
0.000317772
0.000303826
0.00029383
0.000282449
0.000274783
0.00153018
0.000530722
0.000374578
0.000284361
0.000234286
0.000203319
0.000180274
0.000164165
0.000150716
0.000141076
0.000132472
0.000126147
0.000120309
0.000115878
0.000111725
0.000108526
0.000105381
0.000103042
0.000570108
0.000107014
7.27864e-05
6.29105e-05
5.85776e-05
5.60729e-05
5.48549e-05
5.39534e-05
5.38998e-05
5.38438e-05
5.46172e-05
5.54952e-05
5.6822e-05
5.81558e-05
5.99486e-05
6.01545e-05
6.04871e-05
6.08067e-05
9.37032e-06
1.53199e-05
1.90972e-05
2.10995e-05
2.19873e-05
2.22254e-05
2.22663e-05
2.20452e-05
2.17343e-05
2.13904e-05
2.10453e-05
2.07163e-05
2.04125e-05
2.01398e-05
1.98933e-05
1.96822e-05
1.94954e-05
1.93353e-05
1.32856e-12
1.49792e-10
7.73177e-10
3.09234e-09
1.05001e-08
3.25664e-08
8.6632e-08
1.75812e-07
2.88531e-07
4.09056e-07
5.18317e-07
6.05767e-07
6.64793e-07
6.93784e-07
6.87361e-07
6.65906e-07
6.17009e-07
5.4145e-07
4.6136e-07
3.95178e-07
3.32962e-07
2.73005e-07
2.13809e-07
1.58753e-07
1.07818e-07
6.6219e-08
3.67519e-08
1.89882e-08
9.65932e-09
5.11931e-09
2.94804e-09
1.94964e-09
1.65039e-09
2.58715e-09
4.02876e-09
2.26014e-08
5.24625e-08
1.51615e-07
2.96392e-07
4.14926e-07
4.19725e-07
3.80316e-07
2.97934e-07
2.52724e-07
2.57736e-07
3.04841e-07
3.79674e-07
5.92297e-07
1.01622e-06
2.46687e-06
7.51971e-06
2.00919e-05
3.57615e-05
4.85045e-05
5.36549e-05
4.82218e-05
3.92739e-05
4.81396e-05
4.26207e-05
3.61635e-05
3.27233e-05
3.0824e-05
3.08107e-05
3.10646e-05
3.29267e-05
3.30557e-05
3.38865e-05
3.43779e-05
3.50244e-05
3.55599e-05
3.61499e-05
3.66879e-05
3.72465e-05
3.77798e-05
3.83186e-05
3.88449e-05
3.9371e-05
3.98901e-05
4.04077e-05
4.09209e-05
4.1433e-05
4.19417e-05
4.24504e-05
4.29564e-05
4.34638e-05
4.39686e-05
4.44758e-05
4.49802e-05
4.54861e-05
4.59891e-05
4.64913e-05
4.69936e-05
4.74948e-05
4.79958e-05
4.84951e-05
4.89932e-05
4.94891e-05
4.99831e-05
5.04745e-05
5.09636e-05
5.14526e-05
5.19454e-05
5.24488e-05
5.29465e-05
5.34483e-05
5.39513e-05
5.44589e-05
5.49695e-05
5.54846e-05
5.6005e-05
5.65304e-05
5.70635e-05
5.76025e-05
5.8152e-05
5.87086e-05
5.92785e-05
5.98573e-05
6.04527e-05
6.10616e-05
6.1691e-05
6.23359e-05
6.3001e-05
6.36829e-05
6.43908e-05
6.51218e-05
6.58873e-05
6.66831e-05
6.75208e-05
6.83956e-05
6.93193e-05
7.02465e-05
7.12835e-05
7.2256e-05
7.33896e-05
7.44922e-05
7.57313e-05
7.70355e-05
7.83395e-05
7.80724e-05
7.77932e-05
7.74957e-05
7.71844e-05
7.68588e-05
7.65213e-05
7.6172e-05
7.58121e-05
7.54427e-05
7.50645e-05
7.4679e-05
7.42864e-05
7.38886e-05
7.34854e-05
7.30788e-05
7.26684e-05
7.22561e-05
7.18418e-05
7.14268e-05
7.10117e-05
7.05978e-05
7.01874e-05
6.97807e-05
6.93799e-05
6.89833e-05
6.85939e-05
6.82083e-05
6.783e-05
6.7455e-05
6.70876e-05
6.67231e-05
6.63665e-05
6.60121e-05
6.56639e-05
6.53158e-05
6.49695e-05
6.46155e-05
6.42495e-05
6.38566e-05
6.34114e-05
6.28549e-05
6.1348e-05
6.26324e-12
1.01299e-09
1.39375e-08
7.55483e-08
3.28146e-07
1.12897e-06
2.61273e-06
4.83182e-06
7.5411e-06
1.06415e-05
1.37929e-05
1.67467e-05
1.92722e-05
2.12126e-05
2.2412e-05
2.2778e-05
2.25127e-05
2.18879e-05
1.9956e-05
1.71891e-05
1.35247e-05
1.01712e-05
7.2962e-06
5.07688e-06
3.26613e-06
2.05443e-06
1.26261e-06
7.87344e-07
4.91754e-07
3.14875e-07
2.1813e-07
1.68755e-07
1.60488e-07
2.08019e-07
1.7668e-07
1.43714e-06
3.20504e-06
8.95899e-06
1.60679e-05
2.10358e-05
2.20903e-05
2.06881e-05
1.80812e-05
1.58757e-05
1.57899e-05
1.6858e-05
1.68279e-05
1.96445e-05
2.68174e-05
3.81326e-05
4.90766e-05
6.11289e-05
7.14032e-05
8.10852e-05
8.97093e-05
9.84248e-05
0.000108388
0.000122606
0.000133531
0.000146931
0.000156049
0.00016749
0.000186127
0.000196978
0.000209365
0.000221527
0.000233075
0.000244171
0.000254867
0.000265218
0.000275174
0.00028488
0.000294277
0.000303468
0.000312434
0.000321227
0.00032985
0.000338329
0.000346667
0.000354883
0.000362978
0.000370962
0.000378837
0.000386609
0.00039428
0.000401848
0.00040932
0.000416687
0.000423958
0.000431127
0.000438187
0.000445147
0.000452002
0.000458753
0.000465392
0.000471917
0.000478312
0.000484561
0.000490629
0.000496462
0.000501966
0.000506975
0.00051137
0.000515766
0.000520056
0.00052422
0.000528304
0.00053227
0.00053614
0.000539899
0.000543553
0.000547094
0.000550524
0.000553837
0.000557033
0.000560106
0.000563052
0.000565866
0.000568548
0.000571093
0.000573498
0.000575749
0.000577834
0.000579745
0.000581474
0.000583022
0.000584384
0.000585566
0.000586575
0.000587427
0.000588078
0.000588577
0.000588749
0.00058881
0.00058859
0.000588405
0.000587969
0.000587587
0.000587207
0.000586777
0.000586162
0.000585368
0.000584399
0.00058327
0.000581986
0.000580559
0.000578996
0.000577306
0.000575502
0.000573595
0.000571594
0.000569502
0.000567333
0.000565089
0.000562782
0.000560415
0.000557998
0.000555534
0.000553046
0.000550539
0.000548021
0.0005455
0.000542977
0.000540459
0.000537936
0.000535413
0.00053288
0.000530346
0.000527798
0.000525248
0.000522676
0.000520082
0.000517435
0.000514728
0.000511876
0.000508815
0.000505398
0.000501333
0.000495838
0.000480122
1.78353e-11
3.05904e-09
5.8211e-08
3.60235e-07
1.00029e-06
2.84442e-06
6.07223e-06
1.05926e-05
1.62223e-05
2.26455e-05
2.94975e-05
3.63063e-05
4.24951e-05
4.77279e-05
5.17802e-05
5.44106e-05
5.60638e-05
5.65371e-05
5.55947e-05
5.30932e-05
4.89212e-05
4.34725e-05
3.64994e-05
2.92861e-05
2.25104e-05
1.65417e-05
1.14929e-05
7.7927e-06
5.06741e-06
3.30143e-06
2.2562e-06
1.69664e-06
1.37929e-06
1.53887e-06
2.09188e-06
7.65414e-06
1.88436e-05
3.98184e-05
5.59714e-05
6.34637e-05
6.05398e-05
4.81831e-05
3.94999e-05
3.90977e-05
4.57356e-05
5.2852e-05
6.21131e-05
7.55054e-05
8.76001e-05
0.000100433
0.000117663
0.000136276
0.000157267
0.000180332
0.000206011
0.000235392
0.000266651
0.000298398
0.000328172
0.000359073
0.000387075
0.000415827
0.000444163
0.000469488
0.000494429
0.000518232
0.000540988
0.000562855
0.000583932
0.000604334
0.000624111
0.000643396
0.000662205
0.000680634
0.000698702
0.000716461
0.00073393
0.000751138
0.000768096
0.000784822
0.00080132
0.000817601
0.000833666
0.00084952
0.000865163
0.000880595
0.000895816
0.000910822
0.00092561
0.000940173
0.000954501
0.000968593
0.000982444
0.000996043
0.00100938
0.00102243
0.00103518
0.00104758
0.00105961
0.00107122
0.00108235
0.001093
0.00110332
0.00111349
0.00112343
0.00113314
0.00114265
0.00115192
0.00116097
0.00116978
0.00117836
0.0011867
0.0011948
0.00120265
0.00121025
0.00121759
0.00122465
0.00123144
0.00123795
0.00124417
0.00125009
0.00125569
0.00126095
0.00126584
0.00127036
0.00127451
0.00127827
0.00128164
0.00128463
0.00128722
0.00128939
0.00129118
0.00129246
0.00129338
0.00129375
0.00129437
0.00129423
0.0012939
0.00129321
0.00129219
0.00129075
0.00128891
0.00128669
0.0012841
0.00128119
0.00127795
0.00127443
0.00127063
0.00126659
0.00126233
0.00125787
0.00125323
0.00124842
0.00124345
0.00123836
0.00123314
0.00122783
0.00122243
0.00121696
0.00121145
0.00120591
0.00120036
0.00119481
0.00118925
0.00118368
0.00117809
0.00117249
0.00116687
0.00116122
0.00115555
0.00114983
0.00114406
0.00113818
0.00113213
0.0011258
0.00111902
0.00111148
0.00110245
0.00108993
0.00106137
6.47624e-11
1.10042e-08
1.76628e-07
7.83545e-07
2.38606e-06
6.65189e-06
1.32832e-05
2.22121e-05
3.27874e-05
4.39589e-05
5.48329e-05
6.48856e-05
7.36458e-05
8.05855e-05
8.57948e-05
8.93776e-05
9.10607e-05
9.12151e-05
8.99798e-05
8.74007e-05
8.32395e-05
7.816e-05
7.12996e-05
6.29742e-05
5.34799e-05
4.37469e-05
3.43178e-05
2.62539e-05
1.96955e-05
1.46448e-05
1.08533e-05
8.40107e-06
6.89993e-06
8.22385e-06
1.44253e-05
3.19466e-05
5.48428e-05
7.16427e-05
7.84535e-05
7.46646e-05
7.13918e-05
7.15397e-05
7.54268e-05
8.32202e-05
9.41892e-05
0.000109321
0.000120608
0.000139881
0.000162915
0.000189051
0.000221303
0.000256137
0.000295239
0.000336853
0.000380915
0.000426211
0.000471686
0.000516359
0.000559434
0.000601632
0.000641724
0.000680892
0.000718284
0.000753932
0.00078842
0.000821537
0.000853493
0.00088443
0.000914468
0.000943721
0.00097228
0.00100024
0.00102766
0.0010546
0.00108111
0.00110722
0.00113295
0.00115834
0.00118338
0.0012081
0.0012325
0.00125657
0.00128032
0.00130376
0.00132687
0.00134965
0.00137211
0.00139422
0.001416
0.00143741
0.00145845
0.00147912
0.0014994
0.00151928
0.00153875
0.00155779
0.00157638
0.00159451
0.00161214
0.00162928
0.00164591
0.00166211
0.00167794
0.00169347
0.00170864
0.00172348
0.00173797
0.0017521
0.00176588
0.0017793
0.00179236
0.00180504
0.00181736
0.00182929
0.00184083
0.00185197
0.00186271
0.00187303
0.00188292
0.00189238
0.00190139
0.00190993
0.00191796
0.00192547
0.00193245
0.00193888
0.00194475
0.00195007
0.00195481
0.00195897
0.00196246
0.00196541
0.0019677
0.0019694
0.00197057
0.00197158
0.00197176
0.00197143
0.00197054
0.00196911
0.00196709
0.00196449
0.00196136
0.0019577
0.00195357
0.00194898
0.00194397
0.00193857
0.00193282
0.00192675
0.00192038
0.00191374
0.00190686
0.00189976
0.00189247
0.00188501
0.00187739
0.00186963
0.00186178
0.00185385
0.00184586
0.00183784
0.00182979
0.00182172
0.00181362
0.00180548
0.00179729
0.00178906
0.00178077
0.00177244
0.00176404
0.00175555
0.00174689
0.001738
0.00172872
0.00171885
0.00170798
0.00169509
0.00167746
0.00164364
2.18072e-10
3.27495e-08
3.95378e-07
1.84099e-06
6.42663e-06
1.55682e-05
2.90082e-05
4.51475e-05
6.21274e-05
7.83535e-05
9.26765e-05
0.00010436
0.000113016
0.000119297
0.000122954
0.000124671
0.000124702
0.00012331
0.000120697
0.000116975
0.000111938
0.000106277
9.94455e-05
9.12233e-05
8.16324e-05
7.09421e-05
5.95787e-05
4.87785e-05
3.94179e-05
3.18551e-05
2.56945e-05
2.15586e-05
2.13317e-05
2.91644e-05
4.98116e-05
7.24365e-05
8.59929e-05
9.21916e-05
9.47164e-05
9.72452e-05
0.000102312
0.000111141
0.000124534
0.000137802
0.000150407
0.00017149
0.000200427
0.000232142
0.000270879
0.000313581
0.00036138
0.000411432
0.000464523
0.000518801
0.000573916
0.000628782
0.000682875
0.000735699
0.00078697
0.000836447
0.000884314
0.000930895
0.000975822
0.00101914
0.0010611
0.00110176
0.00114127
0.00117975
0.00121731
0.00125406
0.00129007
0.00132544
0.00136021
0.00139445
0.00142818
0.00146144
0.00149424
0.00152661
0.00155855
0.00159006
0.00162115
0.00165181
0.00168204
0.00171184
0.0017412
0.00177012
0.00179859
0.00182659
0.00185413
0.00188118
0.00190774
0.0019338
0.00195935
0.00198437
0.00200886
0.00203281
0.0020562
0.00207904
0.00210132
0.00212306
0.00214426
0.00216496
0.00218521
0.002205
0.00222433
0.0022432
0.00226161
0.00227954
0.00229701
0.00231399
0.00233049
0.0023465
0.00236201
0.00237702
0.00239153
0.00240551
0.00241897
0.0024319
0.00244428
0.00245611
0.00246737
0.00247804
0.00248808
0.00249748
0.00250623
0.00251432
0.00252174
0.00252847
0.00253452
0.00253985
0.00254431
0.00254818
0.00255128
0.00255362
0.00255546
0.00255681
0.0025573
0.0025571
0.0025562
0.00255462
0.00255234
0.0025494
0.00254581
0.00254161
0.00253684
0.00253153
0.0025257
0.00251941
0.00251269
0.00250557
0.00249809
0.00249028
0.00248217
0.00247378
0.00246514
0.00245628
0.00244721
0.00243797
0.00242858
0.00241907
0.00240947
0.00239979
0.00239006
0.00238026
0.0023704
0.00236047
0.00235045
0.00234035
0.00233016
0.00231987
0.00230947
0.00229893
0.0022882
0.0022772
0.00226578
0.00225372
0.00224061
0.00222543
0.00220506
0.00217104
6.84652e-10
8.02576e-08
9.69886e-07
4.92978e-06
1.62661e-05
3.46009e-05
5.69644e-05
8.00404e-05
0.000100578
0.000117142
0.000129625
0.000139121
0.000145292
0.000148899
0.000150506
0.000150492
0.000149114
0.000146548
0.00014298
0.000138401
0.000132777
0.000126604
0.000119413
0.000111061
0.000101593
8.78668e-05
7.28842e-05
5.85334e-05
4.54401e-05
3.5759e-05
3.24564e-05
3.54336e-05
4.91417e-05
7.20227e-05
9.23418e-05
0.000105792
0.000113852
0.000119282
0.000125616
0.000135971
0.000152047
0.00016269
0.000176017
0.000198822
0.00022775
0.000262808
0.000305223
0.000351975
0.000404534
0.000459866
0.000518339
0.000578188
0.000639389
0.000700794
0.000762012
0.000822429
0.000881795
0.000939468
0.000995776
0.001051
0.00110448
0.00115648
0.00120695
0.00125602
0.0013038
0.00135037
0.00139585
0.00144033
0.00148392
0.00152668
0.00156871
0.00161005
0.00165076
0.00169089
0.00173045
0.00176946
0.00180795
0.00184592
0.00188337
0.0019203
0.0019567
0.00199257
0.00202791
0.00206271
0.00209696
0.00213065
0.00216378
0.00219634
0.00222831
0.00225969
0.00229048
0.00232065
0.00235021
0.00237915
0.00240745
0.00243513
0.00246217
0.00248858
0.00251436
0.00253954
0.00256411
0.00258809
0.00261151
0.00263436
0.00265665
0.00267837
0.00269953
0.0027201
0.00274011
0.00275953
0.00277836
0.0027966
0.00281425
0.00283129
0.00284773
0.00286355
0.00287876
0.00289334
0.00290729
0.0029206
0.00293325
0.00294523
0.00295651
0.00296708
0.00297693
0.00298604
0.00299442
0.00300205
0.00300895
0.00301505
0.00302023
0.00302474
0.00302843
0.00303129
0.00303366
0.00303536
0.00303618
0.00303623
0.00303552
0.00303407
0.00303188
0.00302897
0.00302538
0.00302113
0.00301626
0.00301081
0.00300479
0.00299826
0.00299126
0.00298381
0.00297595
0.00296771
0.00295913
0.00295022
0.00294101
0.00293153
0.0029218
0.00291184
0.0029017
0.00289138
0.00288093
0.00287036
0.00285969
0.00284891
0.00283802
0.00282701
0.00281588
0.00280462
0.00279323
0.00278171
0.00277004
0.00275821
0.00274618
0.00273385
0.00272113
0.0027078
0.00269351
0.00267732
0.00265655
0.0026243
2.15839e-09
2.02047e-07
2.54633e-06
1.34298e-05
3.554e-05
6.39351e-05
9.12728e-05
0.000114113
0.000132022
0.00014549
0.000155409
0.000161786
0.000165461
0.000167107
0.000167189
0.000166017
0.00016379
0.000160627
0.000156478
0.000151287
0.000145186
0.000138217
0.000129948
0.000117299
0.000100778
8.63326e-05
7.33371e-05
6.20804e-05
5.49024e-05
5.55223e-05
6.61237e-05
8.28587e-05
0.000104459
0.000120666
0.000132866
0.000141581
0.000149455
0.000160393
0.000177171
0.000185566
0.000198207
0.000220363
0.000248352
0.000283637
0.000325614
0.000374051
0.000428224
0.000485983
0.000547197
0.000610136
0.000674676
0.000739856
0.000805357
0.000870543
0.000935115
0.000998409
0.00106062
0.0011222
0.0011822
0.00124083
0.00129801
0.00135384
0.00140834
0.00146159
0.00151365
0.00156461
0.00161455
0.00166355
0.00171168
0.00175901
0.00180559
0.00185148
0.00189671
0.00194132
0.00198531
0.00202871
0.00207151
0.00211371
0.00215532
0.00219632
0.0022367
0.00227646
0.00231559
0.00235408
0.00239192
0.0024291
0.00246562
0.00250147
0.00253665
0.00257115
0.00260496
0.00263808
0.00267049
0.00270221
0.00273322
0.00276352
0.00279312
0.002822
0.00285018
0.00287765
0.00290444
0.00293055
0.00295601
0.00298081
0.00300495
0.00302844
0.00305127
0.00307344
0.00309496
0.00311582
0.00313601
0.00315555
0.00317444
0.00319266
0.00321021
0.00322708
0.00324327
0.00325878
0.0032736
0.00328772
0.00330114
0.00331384
0.00332581
0.00333703
0.00334751
0.00335722
0.00336616
0.00337434
0.00338177
0.00338839
0.00339408
0.00339908
0.00340324
0.00340655
0.00340937
0.00341141
0.0034126
0.003413
0.00341262
0.00341147
0.00340958
0.00340695
0.00340363
0.00339963
0.00339501
0.00338979
0.00338406
0.00337781
0.00337106
0.00336383
0.00335617
0.00334808
0.00333961
0.00333078
0.00332161
0.00331212
0.00330233
0.00329227
0.00328198
0.00327147
0.00326077
0.00324991
0.00323889
0.00322772
0.00321639
0.00320489
0.00319322
0.00318139
0.00316938
0.00315721
0.00314487
0.00313234
0.0031196
0.00310658
0.0030932
0.00307931
0.00306461
0.00304832
0.0030284
0.00299921
6.41059e-09
5.28593e-07
6.74904e-06
2.88365e-05
6.15926e-05
9.51201e-05
0.000123634
0.000145349
0.000160703
0.00017064
0.000176005
0.000178497
0.000179274
0.000178679
0.000177027
0.000174505
0.000171149
0.000166804
0.000161518
0.00015546
0.00014866
0.00014076
0.000127477
0.000110012
9.46424e-05
8.22567e-05
7.46987e-05
7.43978e-05
7.98422e-05
9.26776e-05
0.000114415
0.000138078
0.000157514
0.000168036
0.000177719
0.00018911
0.000199314
0.000206081
0.000218206
0.000237923
0.000263641
0.000297117
0.000337065
0.000383929
0.000436803
0.000494755
0.00055643
0.000620444
0.000686321
0.000753181
0.000820715
0.000888394
0.000955906
0.00102264
0.00108849
0.00115398
0.00121833
0.00128156
0.00134351
0.00140422
0.00146369
0.00152195
0.00157904
0.001635
0.0016899
0.00174379
0.00179673
0.0018488
0.00190003
0.00195049
0.00200023
0.00204928
0.00209767
0.00214542
0.00219253
0.002239
0.00228483
0.00233001
0.00237453
0.00241837
0.00246153
0.00250398
0.00254572
0.00258674
0.00262703
0.00266659
0.0027054
0.00274346
0.00278078
0.00281736
0.00285317
0.00288823
0.00292253
0.00295607
0.00298884
0.00302086
0.0030521
0.00308258
0.00311228
0.00314122
0.00316942
0.00319689
0.00322364
0.00324967
0.00327499
0.00329958
0.00332346
0.00334663
0.00336908
0.00339081
0.00341183
0.00343213
0.00345171
0.00347057
0.00348872
0.00350614
0.00352284
0.00353883
0.0035541
0.00356865
0.00358247
0.00359556
0.00360791
0.0036195
0.00363035
0.00364044
0.00364977
0.00365834
0.0036662
0.00367325
0.00367943
0.0036849
0.00368956
0.00369341
0.00369675
0.00369927
0.003701
0.00370195
0.00370214
0.00370157
0.00370027
0.00369825
0.00369554
0.00369216
0.00368815
0.00368355
0.00367834
0.00367258
0.0036663
0.00365952
0.00365227
0.00364458
0.00363647
0.00362796
0.00361907
0.00360982
0.00360024
0.00359034
0.00358016
0.00356972
0.00355906
0.00354818
0.00353709
0.00352581
0.00351432
0.00350262
0.00349071
0.0034786
0.00346628
0.00345377
0.00344107
0.00342816
0.00341503
0.00340165
0.00338795
0.00337383
0.00335913
0.00334331
0.00332465
0.00329909
1.65828e-08
1.29952e-06
1.51231e-05
4.87543e-05
8.87742e-05
0.00012342
0.000149742
0.000168077
0.000179952
0.00018661
0.000189394
0.000189383
0.000187444
0.000184354
0.000180544
0.000176164
0.000171207
0.000165652
0.000159469
0.000152587
0.000145183
0.000136065
0.000121885
0.000111536
0.000106037
0.000101454
9.95256e-05
0.00010772
0.000123954
0.00014347
0.000163736
0.000182141
0.000197114
0.000207508
0.000215187
0.000223667
0.000235004
0.000252551
0.00027551
0.000305837
0.000342682
0.000386371
0.000436035
0.000491354
0.00055124
0.000614525
0.000680062
0.000747002
0.000814912
0.000883301
0.000951866
0.00102023
0.00108785
0.00115517
0.00122193
0.00128776
0.00135256
0.0014163
0.00147892
0.00154043
0.00160084
0.00166017
0.00171845
0.00177572
0.00183203
0.00188743
0.00194197
0.00199569
0.00204863
0.00210086
0.00215241
0.0022033
0.00225356
0.0023032
0.00235222
0.00240061
0.00244832
0.00249537
0.00254172
0.00258736
0.00263226
0.0026764
0.00271977
0.00276237
0.00280417
0.00284519
0.00288545
0.00292494
0.00296363
0.0030015
0.00303855
0.00307479
0.00311022
0.00314483
0.00317863
0.00321162
0.0032438
0.00327518
0.00330577
0.00333557
0.00336459
0.00339284
0.00342031
0.00344701
0.00347294
0.0034981
0.0035225
0.00354614
0.00356902
0.00359114
0.00361251
0.00363312
0.00365297
0.00367208
0.00369044
0.00370806
0.00372494
0.00374109
0.0037565
0.00377119
0.00378515
0.00379838
0.00381088
0.00382265
0.00383369
0.003844
0.00385358
0.00386243
0.00387063
0.00387802
0.00388465
0.00389058
0.00389574
0.00390017
0.00390404
0.00390715
0.00390951
0.00391114
0.00391204
0.00391222
0.00391169
0.00391048
0.00390859
0.00390606
0.0039029
0.00389914
0.00389479
0.00388989
0.00388446
0.00387852
0.00387209
0.00386519
0.00385785
0.00385008
0.00384189
0.0038333
0.00382433
0.00381501
0.00380536
0.00379542
0.00378521
0.00377474
0.00376402
0.00375305
0.00374184
0.00373038
0.00371868
0.00370674
0.00369456
0.00368217
0.00366956
0.00365674
0.0036437
0.00363042
0.00361688
0.00360301
0.00358867
0.00357341
0.0035559
0.00353349
3.68491e-08
2.97827e-06
2.74003e-05
7.16596e-05
0.000115628
0.000150073
0.000173499
0.000188297
0.000196222
0.000198605
0.000197337
0.000193804
0.00018895
0.000183346
0.000177353
0.000170756
0.000163962
0.000156427
0.000148715
0.000140777
0.000132542
0.000124279
0.000117304
0.000113576
0.000115296
0.000122982
0.000135887
0.000151493
0.000168716
0.000185873
0.000201699
0.00021463
0.000224817
0.00023574
0.000248182
0.000264261
0.00028488
0.000311937
0.000345137
0.000384839
0.000430394
0.00048153
0.000537543
0.000597766
0.000661162
0.000726723
0.000793638
0.000861358
0.000929533
0.00099785
0.00106576
0.00113327
0.00120076
0.00126744
0.00133333
0.00139831
0.00146233
0.00152535
0.00158735
0.00164833
0.00170831
0.00176731
0.00182536
0.00188252
0.00193882
0.00199433
0.00204908
0.00210311
0.00215642
0.00220909
0.00226118
0.00231269
0.00236365
0.00241408
0.00246397
0.00251339
0.00256235
0.00261065
0.00265822
0.00270501
0.00275101
0.0027962
0.00284055
0.00288405
0.00292669
0.00296847
0.00300938
0.0030494
0.00308859
0.00312697
0.00316454
0.0032013
0.00323726
0.0032724
0.00330674
0.00334027
0.003373
0.00340491
0.00343603
0.00346633
0.00349583
0.00352451
0.00355239
0.00357946
0.00360572
0.00363118
0.00365585
0.00367971
0.00370279
0.00372508
0.00374658
0.0037673
0.00378725
0.00380643
0.00382485
0.00384251
0.00385942
0.0038756
0.00389104
0.00390576
0.00391976
0.00393304
0.00394562
0.0039575
0.00396868
0.00397917
0.00398896
0.00399809
0.00400661
0.00401436
0.00402142
0.00402784
0.00403354
0.0040386
0.00404307
0.00404685
0.00404994
0.00405235
0.00405407
0.00405513
0.00405552
0.00405526
0.00405435
0.00405282
0.00405069
0.00404796
0.00404467
0.00404081
0.00403643
0.00403153
0.00402613
0.00402024
0.00401389
0.00400707
0.00399981
0.00399211
0.00398399
0.00397548
0.0039666
0.00395739
0.00394787
0.00393805
0.00392795
0.00391756
0.00390689
0.00389593
0.0038847
0.0038732
0.00386145
0.00384946
0.00383724
0.0038248
0.00381213
0.00379925
0.00378614
0.00377278
0.00375909
0.00374472
0.00372858
0.00370972
7.03058e-08
6.10357e-06
4.16454e-05
9.26038e-05
0.000138032
0.000171177
0.000192647
0.000203727
0.000207297
0.000205851
0.000201251
0.000194795
0.000187406
0.000179252
0.000171163
0.000162848
0.000154836
0.000147595
0.000141609
0.000136709
0.000133263
0.000132289
0.000134606
0.000140502
0.000149876
0.000162085
0.000176188
0.000191046
0.000205848
0.000219283
0.000230848
0.000243105
0.000257289
0.000273216
0.000292513
0.000316741
0.000346442
0.000382037
0.00042315
0.000469547
0.00052071
0.000576213
0.000635435
0.000697657
0.000762022
0.000827758
0.000894284
0.000961194
0.00102814
0.00109462
0.00116109
0.00122715
0.00129257
0.00135717
0.0014209
0.00148368
0.0015455
0.00160638
0.0016663
0.00172531
0.0017834
0.00184058
0.0018969
0.00195247
0.00200734
0.00206155
0.0021152
0.00216839
0.00222137
0.00227393
0.002326
0.00237757
0.00242865
0.00247924
0.00252933
0.00257888
0.0026278
0.00267611
0.00272372
0.0027706
0.00281675
0.00286212
0.00290667
0.00295039
0.00299327
0.0030353
0.00307649
0.00311687
0.00315645
0.00319522
0.00323319
0.00327038
0.00330676
0.00334235
0.00337714
0.00341112
0.00344429
0.00347664
0.00350818
0.0035389
0.00356879
0.00359785
0.00362608
0.00365347
0.00368003
0.00370576
0.00373067
0.00375475
0.00377801
0.00380046
0.00382211
0.00384296
0.00386301
0.00388229
0.00390079
0.00391852
0.00393551
0.00395175
0.00396725
0.00398204
0.00399612
0.00400951
0.00402221
0.00403424
0.00404561
0.00405633
0.00406639
0.00407587
0.00408472
0.00409291
0.00410047
0.00410742
0.00411374
0.00411948
0.00412464
0.00412917
0.00413307
0.00413634
0.00413899
0.00414102
0.00414242
0.00414322
0.00414341
0.004143
0.00414201
0.00414044
0.00413832
0.00413565
0.00413245
0.00412873
0.0041245
0.00411978
0.00411457
0.00410887
0.0041027
0.00409605
0.00408894
0.00408141
0.00407347
0.00406517
0.00405652
0.00404754
0.00403824
0.00402863
0.00401869
0.00400843
0.00399788
0.00398704
0.00397592
0.00396455
0.00395294
0.00394109
0.00392903
0.00391676
0.00390429
0.00389162
0.00387873
0.00386536
0.00385055
0.00383479
1.13416e-07
1.06194e-05
5.66041e-05
0.000113321
0.000159543
0.000190995
0.000208723
0.000215998
0.00021612
0.000211707
0.000204674
0.000196166
0.000187261
0.000178624
0.000170707
0.000163844
0.000158021
0.000154221
0.00015222
0.000152163
0.000154376
0.000159063
0.000166194
0.000175505
0.000186573
0.000198894
0.000211858
0.000224488
0.000236297
0.000248769
0.000263699
0.000280536
0.000299067
0.000321418
0.00034823
0.000380021