/*--------------------------------*- C++ -*----------------------------------*\
  =========                 |
  \\      /  F ield         | OpenFOAM: The Open Source CFD Toolbox
   \\    /   O peration     | Website:  https://openfoam.org
    \\  /    A nd           | Version:  13
     \\/     M anipulation  |
\*---------------------------------------------------------------------------*/
FoamFile
{
    format      ascii;
    class       volScalarField;
    location    "500";
    object      omega;
}
// * * * * * * * * * * * * * * * * * * * * * * * * * * * * * * * * * * * * * //

dimensions      [0 0 -1 0 0 0 0];

internalField   nonuniform List<scalar> 
12225
(
31477.7
31477.7
31477.7
31477.7
31477.7
31477.7
47537
42046.2
46521.1
49741.9
50168.7
51189.5
49768.1
43768.5
37089.6
31477.7
39851.6
45714.3
0.388352
7063.51
10488.6
13636.4
13773.8
13518.2
18230.8
18313.2
19444.1
20898.9
22125.9
20459.8
22170.2
21725.1
20545.5
19510
18333.4
18652.4
0.375304
1497.08
4740.78
6550.72
6857.2
6911.22
7213.13
8672.53
8743.02
9447.66
9795.56
9533.87
9369.32
9069.46
9092.52
9101.02
9081.84
8964.5
283.082
723.635
1858.81
2783.93
4114.45
4372.88
4378.85
5410.2
5345.64
5853.83
6151.94
6002.47
5881.78
5592.87
5434.17
5209.52
5064.72
4966.43
413.166
510.315
912.993
1341.68
1751.28
2433.79
2966.6
3063.64
3022.15
3167.35
3171.56
3200.6
3210.88
3237
3477.05
3715.18
3654.3
3566.12
443.651
451.65
633.093
931.182
1153.79
1324.14
1522.91
1688.94
1798.47
1833.53
2084.77
2347.88
2464.16
2526.05
2504.31
2527.46
2496.68
2444.8
437.885
439.57
480.248
578.279
677.801
824.235
928.762
1016.35
1133.31
1173.7
1263.86
1389.69
1510.21
1578.81
1587.92
1593.67
1564.32
1534.61
440.168
436.195
439.706
479.324
541.976
626.916
714.189
790.432
862.221
885.538
907.281
947.276
984.086
1013.06
1022.73
1028.48
1017.73
1012.46
439.515
435.801
434.465
444.835
470.136
510.316
552.659
591.581
631.76
654.341
673.626
686.737
701.154
711.697
715.25
718.592
718.099
720.812
438.645
436.277
433.206
434.335
440.895
456.181
474.147
490.607
508.804
521.558
533.165
539.605
547.247
551.196
555.87
558.017
561.719
561.088
438.957
436.785
433.572
431.59
431.931
435.06
441.298
446.475
453.005
458.051
463.23
466.356
469.86
471.931
474.178
476.914
476.026
476.654
438.899
436.963
434.207
432.541
430.099
429.453
430.26
431.465
432.981
434.245
435.51
436.702
437.566
438.368
438.834
439.976
440.248
439.964
438.922
436.873
434.542
432.645
430.642
428.981
427.785
426.888
426.188
425.522
424.919
424.319
423.724
423.14
422.518
422.071
421.33
421.1
438.98
436.791
434.65
432.659
430.73
428.944
427.274
425.773
424.353
423.055
421.775
420.608
419.425
418.376
417.288
416.374
415.384
414.611
438.997
436.777
434.657
432.657
430.741
428.938
427.211
425.593
424.04
422.586
421.18
419.862
418.582
417.385
416.22
415.137
414.084
413.108
439
436.773
434.656
432.649
430.739
428.927
427.2
425.561
423.999
422.514
421.097
419.748
418.461
417.234
416.062
414.945
413.878
412.861
439.001
436.772
434.655
432.645
430.734
428.919
427.191
425.548
423.983
422.494
421.074
419.721
418.429
417.199
416.023
414.903
413.831
412.81
439
436.769
434.65
432.638
430.725
428.908
427.178
425.533
423.966
422.474
421.052
419.697
418.404
417.171
415.994
414.871
413.798
412.775
439
436.771
434.653
432.642
430.73
428.912
427.183
425.537
423.97
422.478
421.055
419.7
418.406
417.173
415.995
414.872
413.798
412.774
439
436.772
434.655
432.646
430.734
428.918
427.188
425.545
423.977
422.487
421.064
419.71
418.416
417.184
416.006
414.884
413.81
412.787
439.002
436.773
434.658
432.648
430.74
428.923
427.198
425.553
423.99
422.498
421.08
419.726
418.437
417.205
416.033
414.91
413.844
412.822
439.007
436.77
434.664
432.651
430.75
428.931
427.214
425.569
424.017
422.533
421.133
419.795
418.533
417.32
416.185
415.083
414.063
413.07
439.033
436.752
434.679
432.658
430.792
428.969
427.308
425.691
424.24
422.847
421.618
420.439
419.388
418.363
417.482
416.585
415.858
415.086
439.171
436.602
434.705
432.815
431.189
429.626
428.407
427.217
426.505
425.892
425.742
425.522
425.576
425.705
426.001
426.244
426.772
427.015
439.559
435.594
435.249
435.137
435.811
436.544
438.038
439.46
442.544
445.624
449.966
453.653
458.169
461.768
466.167
469.556
473.959
477.186
437.947
432.394
443.751
454.91
467.612
477.409
491.635
505.299
522.44
537.526
554.932
569.275
585.423
598.181
612.971
624.213
638.157
648.122
414.639
437.382
500.903
572.651
635.254
691.119
753.044
807.74
867.102
916.287
969.607
1012.01
1059.12
1095.59
1137.72
1169.07
1207.72
1234.31
244.938
706.395
1009.17
1338.11
1625.02
1871.15
2104.82
2295.41
2477.34
2618.94
2760.75
2868.46
2983.95
3073.46
3172.68
3251.13
3340.08
3406.09
0.389058
3801.73
6070.8
7440.93
8346.94
8962.87
9387.26
9686.33
9860.73
9980.24
10009.2
9997.02
9983.56
9946.97
9906.56
9870.4
9847.27
9834.06
18117.5
23259.6
25625.6
26575.3
26897.5
26845.1
26694.5
26403.9
26073.7
25736.7
25410.3
25103.7
24822
24567.6
24337
24134.7
23952.5
23792.4
11463.2
2514.24
2516.41
2518.61
2520.83
2523.07
2525.32
2527.6
2529.9
2532.22
2534.57
2536.93
2539.31
2541.72
2544.15
2546.6
2549.08
2551.57
2554.09
2556.64
2559.2
2561.79
2564.41
2567.05
2569.71
2572.4
2575.12
2577.86
2580.62
2583.41
2586.23
2589.08
2591.95
2594.85
2597.77
2600.73
2603.71
2606.72
2609.76
2612.82
2615.92
2619.05
2622.2
2625.39
2628.61
2631.86
2635.14
2638.45
2641.79
2645.17
2648.58
2652.02
2655.5
2659.01
2662.55
2666.13
3137.23
2673.39
2677.08
2680.8
3328.29
3498.6
3273.32
3254.72
3384.79
3461.91
3552.96
3630.12
3710.99
3784.11
3858.2
3927.77
3996.9
4063.32
4128.73
4192.29
4254.74
4315.71
4375.63
4434.25
4491.9
4548.35
4603.9
4658.31
4711.9
4764.39
4816.1
4866.72
4916.52
4965.26
5013.05
5059.89
5105.74
5150.59
5194.38
5237.11
5278.71
5319.15
5358.41
5396.43
5433.33
5469.17
5504.47
5538.68
5571.96
5604.29
5635.69
5666.15
5695.62
5724.16
5751.63
5778.19
5803.59
5828.09
5851.36
5873.71
5894.78
5914.89
5933.73
5951.63
5968.24
5983.78
5997.92
6010.98
6022.7
6033.47
6043.02
6051.7
6059.17
6065.08
6071.3
6072.08
6076.86
6073.58
6075.18
6072.66
6071.52
6068.4
6063.82
6058.24
6051.54
6043.95
6035.46
6026.25
6016.31
6005.8
5994.72
5983.2
5971.25
5958.98
5946.42
5933.65
5920.71
5907.64
5894.53
5881.37
5868.31
5855.33
5842.66
5830.24
5818.23
5806.5
5795.21
5784.18
5773.56
5763.14
5753.13
5743.31
5733.89
5724.66
5715.78
5706.96
5698.31
5689.41
5679.96
5669.14
5655.99
5637.96
5609.64
5495.47
11463.2
1994
990.751
804.542
687.785
615.733
620.799
618.739
608.891
587.849
564.861
542.012
520.976
503.685
491.532
483.232
481.635
482.892
503.979
543.308
620.216
715.53
822.316
930.436
1032.66
1113.75
1173.81
1181.69
1161.05
1102.84
994.969
868.442
712.128
609.02
537.74
480.31
453.057
451.737
461.865
482.794
515.738
543.895
591.602
680.027
791.995
984.318
1305.27
1623.36
1839.03
1979.6
2050.15
2069.58
2058
2013.17
1965.2
1911.99
1867.04
1796.79
1766.35
1721.14
1737.54
1729.37
1660.28
1669.86
1665.18
1659.21
1658.54
1658.88
1661.45
1664.77
1669.77
1675.2
1681.66
1688.45
1695.78
1703.34
1711.18
1719.15
1727.24
1735.38
1743.56
1751.72
1759.87
1767.97
1776.01
1783.97
1791.85
1799.62
1807.28
1814.77
1822.15
1829.36
1836.41
1843.27
1849.96
1856.45
1862.78
1868.98
1875.13
1881.38
1888
1895.51
1904.32
1912.57
1920.59
1928.45
1936
1943.34
1950.4
1957.21
1963.77
1970.05
1976.08
1981.84
1987.33
1992.55
1997.5
2002.19
2006.62
2010.79
2014.7
2018.33
2021.69
2024.8
2027.69
2030.35
2032.8
2035.03
2037.01
2038.7
2040.22
2041.29
2042.41
2043.04
2043.88
2044.33
2044.64
2044.29
2043.49
2041.99
2040.29
2038.43
2036.43
2034.32
2032.08
2029.74
2027.31
2024.81
2022.24
2019.6
2016.9
2014.17
2011.41
2008.63
2005.84
2003.04
2000.27
1997.52
1994.8
1992.11
1989.47
1986.85
1984.28
1981.73
1979.23
1976.73
1974.28
1971.84
1969.45
1967.06
1964.72
1962.41
1960.15
1957.91
1955.81
1953.83
1952.09
1951.07
1949.72
1959.22
11463.2
2011.23
808.496
625.565
660.572
667.729
642.933
591.324
533.342
478.565
429.775
388.722
356.171
330.518
310.613
295.38
284.357
276.616
272.732
274.2
282.522
297.838
326.541
365.777
417.362
474.228
536.886
587.983
628.372
638.987
628.727
599.89
543.362
478.642
415.998
373.945
373.123
383.023
406.55
443.51
516.199
627.307
779.776
976.944
1154.12
1301.83
1435.75
1517.73
1552.73
1553.74
1507.48
1454.47
1393.92
1336.28
1284.85
1239.26
1201.43
1170.39
1150.48
1130.95
1122.36
1112.25
1103.6
1101.8
1099.52
1098.76
1099.26
1100.63
1102.75
1105.4
1108.57
1112.05
1115.85
1119.83
1124.01
1128.29
1132.68
1137.13
1141.63
1146.15
1150.7
1155.24
1159.78
1164.3
1168.79
1173.26
1177.68
1182.06
1186.39
1190.66
1194.87
1199.02
1203.12
1207.15
1211.14
1215.08
1219.01
1222.94
1226.92
1231
1235.22
1239.6
1244
1248.21
1252.29
1256.24
1260.03
1263.69
1267.2
1270.55
1273.76
1276.81
1279.71
1282.45
1285.04
1287.48
1289.76
1291.89
1293.87
1295.69
1297.37
1298.88
1300.25
1301.47
1302.55
1303.5
1304.31
1304.99
1305.52
1305.92
1306.2
1306.31
1306.36
1306.28
1306.23
1305.72
1305.24
1304.48
1303.6
1302.52
1301.37
1300.14
1298.84
1297.47
1296.05
1294.57
1293.03
1291.45
1289.83
1288.17
1286.47
1284.73
1282.98
1281.21
1279.43
1277.63
1275.83
1274.02
1272.21
1270.38
1268.55
1266.7
1264.84
1262.96
1261.07
1259.17
1257.24
1255.29
1253.33
1251.35
1249.36
1247.38
1245.43
1243.55
1241.79
1240.25
1239.09
1238.93
1240.16
1250.38
11463.2
2033.47
992.157
947.552
884.925
762.386
649.364
545.656
462.928
400.909
354.048
317.319
288.377
266.044
248.919
235.878
226.064
218.95
214.162
211.691
212.261
214.543
221.442
233.502
252.503
277.928
310.581
344.895
378.629
404.269
420.217
418.896
406.561
382.721
388.366
435.248
512.623
570.631
626.164
697.613
800.909
938.463
1060.68
1139.68
1207.65
1258.57
1283.08
1250.83
1206.13
1162.85
1109.17
1064.47
1022.47
987.941
958.791
935.394
917.052
903.115
893.51
885.998
881.664
878.29
876.63
876.359
876.645
877.746
879.424
881.55
884.04
886.814
889.824
893.007
896.339
899.781
903.313
906.914
910.568
914.263
917.987
921.731
925.487
929.247
933.006
936.757
940.496
944.218
947.918
951.593
955.239
958.85
962.427
965.971
969.481
972.96
976.409
979.836
983.246
986.649
990.052
993.46
996.871
1000.25
1003.55
1006.73
1009.8
1012.77
1015.62
1018.36
1020.98
1023.48
1025.86
1028.12
1030.25
1032.27
1034.16
1035.93
1037.57
1039.1
1040.5
1041.78
1042.94
1043.97
1044.88
1045.67
1046.34
1046.89
1047.33
1047.65
1047.85
1047.94
1047.95
1047.83
1047.61
1047.29
1046.89
1046.3
1045.61
1044.79
1043.86
1042.82
1041.71
1040.53
1039.29
1037.98
1036.62
1035.21
1033.74
1032.23
1030.68
1029.08
1027.44
1025.77
1024.07
1022.34
1020.59
1018.81
1017.02
1015.2
1013.36
1011.49
1009.6
1007.68
1005.74
1003.77
1001.77
999.747
997.691
995.606
993.493
991.352
989.195
987.036
984.897
982.812
980.837
979.067
977.649
977.08
977.921
983.97
11463.2
2289.38
1429.78
1163.84
929.103
723.194
559.829
449.019
373.118
319.725
281.297
253.434
233.348
218.316
206.808
197.964
191.286
186.418
183.125
181.331
181.443
182.478
185.479
191.22
200.495
214.053
232.956
255.51
279.437
301.649
316.554
329.565
361.035
421.836
519.575
597.612
662.401
731.516
809.114
884.109
950.581
1007.85
1056.74
1087.52
1098.03
1070.75
1023.17
987.982
945.928
909.855
875.475
848.17
824.324
805.377
790.049
778.308
769.534
763.267
759.145
756.844
755.82
755.555
756.174
757.529
759.364
761.633
764.229
767.081
770.138
773.358
776.709
780.163
783.702
787.309
790.971
794.677
798.418
802.187
805.977
809.78
813.593
817.409
821.223
825.031
828.828
832.611
836.376
840.12
843.837
847.527
851.182
854.806
858.395
861.95
865.468
868.953
872.401
875.812
879.184
882.506
885.774
888.965
892.065
895.063
897.962
900.757
903.445
906.025
908.495
910.854
913.099
915.232
917.249
919.152
920.938
922.61
924.166
925.608
926.933
928.144
929.234
930.206
931.057
931.793
932.409
932.909
933.289
933.549
933.685
933.713
933.675
933.484
933.184
932.777
932.261
931.607
930.839
929.951
928.96
927.87
926.693
925.435
924.1
922.692
921.216
919.676
918.078
916.422
914.712
912.95
911.14
909.286
907.391
905.46
903.495
901.499
899.473
897.416
895.328
893.209
891.06
888.878
886.665
884.423
882.15
879.847
877.513
875.147
872.752
870.334
867.903
865.468
863.048
860.674
858.394
856.291
854.485
853.321
853.362
856.222
11463.2
2865.83
1701.62
1193.81
830.792
587.877
443.951
354.984
299.403
263.165
237.963
219.461
205.319
194.257
185.457
178.465
173.041
169.065
166.39
165.082
165.23
166.275
168.859
173.318
179.956
189.49
203.199
221.234
243.661
272.895
316.983
373.597
467.228
567.332
645.323
710.965
773.012
826.168
868.068
904.093
938.747
958.615
962.675
936.363
905.171
873.78
839.407
810.532
782.028
758.789
738.471
722.227
708.768
698.309
690.313
684.58
680.714
678.699
677.907
677.879
678.842
680.471
682.675
685.318
688.293
691.538
694.99
698.605
702.349
706.196
710.125
714.122
718.174
722.272
726.408
730.575
734.767
738.98
743.207
747.443
751.683
755.924
760.159
764.384
768.596
772.789
776.96
781.105
785.221
789.299
793.339
797.337
801.29
805.195
809.051
812.853
816.6
820.286
823.905
827.447
830.909
834.28
837.552
840.722
843.788
846.747
849.596
852.334
854.959
857.47
859.864
862.143
864.305
866.349
868.275
870.082
871.771
873.341
874.791
876.119
877.323
878.402
879.355
880.182
880.881
881.453
881.894
882.203
882.371
882.422
882.384
882.188
881.861
881.409
880.828
880.111
879.264
878.291
877.198
875.994
874.683
873.273
871.768
870.172
868.49
866.727
864.895
862.991
861.02
858.985
856.892
854.744
852.547
850.304
848.021
845.699
843.341
840.947
838.517
836.052
833.554
831.023
828.46
825.868
823.247
820.596
817.915
815.202
812.461
809.697
806.918
804.135
801.366
798.636
795.987
793.484
791.222
789.45
788.512
789.304
11463.2
3378.78
1755.97
1035.76
653.589
458.71
358.986
302.028
265.49
240.044
220.963
206.095
194.259
184.541
176.503
169.947
164.774
160.942
158.536
157.631
158.112
159.957
163.714
169.542
178.23
190.617
207.2
231.515
269.021
326.212
412.406
510.109
591.991
657.688
714.768
760.894
796.043
824.372
848.876
859.403
859.509
838.26
815.949
790.45
765.042
740.331
716.756
696.621
678.678
664.047
651.824
642.139
634.558
629.003
625.193
623.152
622.39
622.385
623.456
625.289
627.783
630.775
634.175
637.894
641.861
646.024
650.339
654.772
659.301
663.904
668.568
673.281
678.036
682.825
687.643
692.485
697.347
702.222
707.106
711.995
716.882
721.763
726.632
731.485
736.316
741.122
745.897
750.637
755.336
759.99
764.59
769.135
773.621
778.042
782.397
786.68
790.888
795.017
799.062
803.022
806.884
810.644
814.293
817.831
821.254
824.562
827.75
830.819
833.764
836.585
839.279
841.843
844.275
846.577
848.75
850.793
852.707
854.49
856.143
857.66
859.043
860.286
861.391
862.353
863.175
863.852
864.384
864.766
864.991
865.074
865.044
864.844
864.494
863.995
863.349
862.553
861.61
860.524
859.302
857.946
856.466
854.866
853.152
851.328
849.401
847.374
845.238
843.015
840.711
838.333
835.886
833.374
830.804
828.181
825.511
822.798
820.044
817.251
814.42
811.552
808.65
805.716
802.751
799.759
796.739
793.692
790.616
787.512
784.381
781.229
778.063
774.895
771.739
768.618
765.564
762.631
759.89
757.519
755.678
754.873
11463.2
3536.46
1565.03
821.878
519.072
383.068
312.364
270.869
243.96
225.244
211.175
199.687
189.629
180.935
173.551
167.505
162.894
159.933
158.604
158.767
160.414
163.995
170.166
179.43
194.302
217.212
250.115
300.753
374.856
457.54
530.292
591.452
644.939
690.07
725.715
754.595
774.499
782.111
777.883
762.239
745.709
725.593
706.275
686.699
667.899
650.26
634.427
620.982
609.57
600.339
592.972
587.394
583.415
581.063
580.087
579.976
580.918
582.72
585.297
588.492
592.204
596.329
600.79
605.518
610.456
615.561
620.796
626.135
631.555
637.041
642.578
648.156
653.769
659.409
665.071
670.752
676.447
682.149
687.854
693.556
699.248
704.925
710.581
716.211
721.809
727.369
732.888
738.359
743.775
749.129
754.416
759.63
764.766
769.82
774.786
779.66
784.439
789.12
793.701
798.175
802.532
806.766
810.874
814.854
818.703
822.421
826.004
829.452
832.761
835.931
838.959
841.844
844.587
847.186
849.641
851.951
854.118
856.138
858.01
859.732
861.301
862.714
863.97
865.067
866.002
866.774
867.379
867.816
868.069
868.162
868.105
867.865
867.45
866.862
866.104
865.176
864.079
862.818
861.397
859.822
858.1
856.237
854.24
852.115
849.868
847.503
845.039
842.475
839.82
837.08
834.261
831.37
828.412
825.396
822.328
819.212
816.052
812.851
809.61
806.332
803.02
799.677
796.304
792.906
789.482
786.034
782.559
779.058
775.534
771.991
768.437
764.882
761.341
757.83
754.377
751.023
747.813
744.856
742.237
740.099
11463.2
3401.06
1295.22
666.745
442.863
345.313
293.207
261.22
239.562
223.244
210.381
199.815
190.951
183.413
177.152
172.324
169.144
167.773
168.375
171.176
176.259
184.957
198.687
218.707
251.026
297.195
356.129
419.828
478.45
531.777
578.764
619.928
654.771
684.643
705.749
713.747
712.13
700.527
687.801
672.321
657.33
642.112
627.558
613.295
599.828
587.583
576.933
568.026
560.736
555.041
550.809
547.988
546.616
546.25
546.847
548.418
550.852
554.025
557.845
562.21
567.033
572.235
577.748
583.512
589.479
595.608
601.866
608.228
614.673
621.181
627.737
634.331
640.952
647.593
654.245
660.908
667.58
674.248
680.909
687.555
694.18
700.777
707.34
713.864
720.341
726.764
733.121
739.403
745.615
751.755
757.811
763.779
769.65
775.421
781.084
786.635
792.07
797.384
802.569
807.619
812.533
817.303
821.929
826.407
830.737
834.917
838.945
842.819
846.538
850.099
853.501
856.743
859.824
862.743
865.499
868.094
870.525
872.792
874.891
876.821
878.575
880.155
881.555
882.776
883.811
884.661
885.32
885.788
886.04
886.117
886.004
885.688
885.17
884.454
883.541
882.432
881.131
879.641
877.966
876.114
874.091
871.905
869.564
867.076
864.449
861.692
858.815
855.827
852.735
849.549
846.275
842.921
839.495
836.004
832.458
828.862
825.22
821.536
817.812
814.054
810.263
806.442
802.594
798.723
794.831
790.915
786.977
783.016
779.036
775.04
771.037
767.036
763.047
759.087
755.177
751.35
747.644
744.154
740.889
737.713
11463.2
3004.94
1050.96
564.667
398.374
323.269
283.049
257.61
239.849
226.937
216.703
208.151
200.925
195.065
190.739
188.626
188.681
191.833
197.882
207.323
220.987
241.064
268.913
305.57
348.254
394.057
439.864
483.08
522.442
558.143
589.235
616.929
640.11
651.171
653.018
647.172
638.176
626.445
614.841
603.151
592.009
581.059
570.433
560.174
550.659
542.228
535.078
529.27
524.764
521.524
519.635
518.914
519.035
520.224
522.332
525.29
529.014
533.417
538.417
543.934
549.895
556.235
562.891
569.804
576.928
584.222
591.65
599.188
606.827
614.528
622.273
630.048
637.84
645.634
653.416
661.164
668.856
676.535
684.202
691.851
699.472
707.057
714.6
722.095
729.535
736.912
744.22
751.456
758.601
765.641
772.57
779.378
786.059
792.606
799.015
805.281
811.4
817.368
823.178
828.831
834.321
839.645
844.802
849.79
854.607
859.253
863.726
868.026
872.149
876.094
879.861
883.447
886.851
890.074
893.114
895.972
898.646
901.135
903.435
905.543
907.455
909.167
910.678
911.984
913.081
913.967
914.64
915.089
915.301
915.31
915.095
914.652
913.979
913.08
911.956
910.609
909.042
907.26
905.268
903.074
900.684
898.109
895.358
892.44
889.366
886.145
882.79
879.311
875.717
872.019
868.227
864.348
860.392
856.368
852.285
848.151
843.971
839.749
835.491
831.201
826.882
822.536
818.167
813.778
809.37
804.944
800.498
796.035
791.558
787.071
782.579
778.091
773.617
769.17
764.768
760.436
756.203
752.142
748.234
744.098
11463.2
2544.38
888.985
514.824
380.762
318.088
283.126
262.227
248.359
238.235
230.341
224.112
219.447
217.066
216.824
219.778
226.32
235.954
248.121
264.583
286.435
313.34
344.211
377.48
411.375
444.707
476.51
506.054
532.52
556.886
579.111
592.966
597.518
597.022
592.491
585.029
576.622
567.904
559.561
551.424
543.49
535.634
527.956
520.658
514.037
508.339
503.697
500.164
497.77
496.614
496.361
497.085
498.781
501.413
504.913
509.219
514.254
519.945
526.221
533.012
540.256
547.907
555.901
564.165
572.652
581.319
590.121
599.006
607.889
616.813
625.787
634.798
643.827
652.858
661.872
670.866
679.844
688.786
697.693
706.553
715.349
724.078
732.733
741.313
749.809
758.212
766.509
774.688
782.739
790.656
798.429
806.049
813.508
820.801
827.924
834.872
841.642
848.233
854.639
860.86
866.89
872.729
878.373
883.824
889.079
894.14
899.005
903.674
908.144
912.415
916.486
920.356
924.023
927.487
930.749
933.807
936.662
939.308
941.746
943.967
945.97
947.749
949.303
950.627
951.719
952.573
953.19
953.549
953.66
953.527
953.144
952.504
951.607
950.454
949.048
947.39
945.486
943.338
940.956
938.344
935.515
932.476
929.241
925.819
922.224
918.468
914.562
910.52
906.355
902.077
897.698
893.228
888.678
884.056
879.374
874.641
869.863
865.047
860.199
855.325
850.427
845.508
840.569
835.614
830.645
825.662
820.665
815.658
810.643
805.623
800.603
795.59
790.592
785.621
780.69
775.821
771.035
766.389
761.86
756.852
11463.2
2121.59
788.44
483.619
371.505
318.053
289.706
272.944
262.121
254.68
249.5
246.484
245.533
246.951
251.45
259.223
269.936
283.043
299.217
318.613
340.703
364.691
389.653
414.776
439.441
462.927
484.693
505.308
524.808
539.598
546.501
548.497
548.539
545.432
540.639
535.016
529.253
523.538
517.94
512.352
506.745
501.16
495.748
490.737
486.363
482.816
480.196
478.711
478.206
478.604
480.005
482.362
485.645
489.825
494.87
500.748
507.341
514.583
522.407
530.742
539.503
548.565
557.886
567.505
577.39
587.5
597.791
608.228
618.805
629.461
640.145
650.828
661.494
672.113
682.649
693.089
703.429
713.659
723.767
733.761
743.65
753.436
763.123
772.71
782.194
791.56
800.792
809.873
818.792
827.535
836.094
844.46
852.624
860.582
868.332
875.869
883.194
890.305
897.201
903.879
910.337
916.573
922.587
928.379
933.951
939.303
944.435
949.346
954.038
958.51
962.761
966.791
970.6
974.186
977.55
980.691
983.608
986.299
988.759
990.983
992.966
994.704
996.193
997.431
998.413
999.133
999.587
999.768
999.674
999.307
998.662
997.734
996.523
995.028
993.251
991.195
988.866
986.268
983.41
980.298
976.945
973.362
969.561
965.557
961.361
956.99
952.457
947.777
942.964
938.031
932.993
927.86
922.645
917.359
912.012
906.614
901.175
895.705
890.21
884.697
879.167
873.623
868.064
862.496
856.918
851.333
845.741
840.148
834.554
828.962
823.375
817.8
812.241
806.709
801.216
795.78
790.416
785.171
780.032
774.212
11463.2
1955.29
765.833
478.64
373.112
325.59
301.137
287.346
279.051
274.141
271.894
271.523
273.533
278.105
285.291
294.928
306.723
320.627
336.462
353.724
372.069
390.865
409.488
427.51
444.864
461.804
478.074
491.472
499.87
504.317
506.301
506.681
505.642
503.257
500.242
496.927
493.495
489.971
486.352
482.634
478.872
475.193
471.773
468.816
466.509
465.134
464.649
465.077
466.614
469.138
472.597
476.969
482.222
488.299
495.093
502.456
510.541
519.332
528.772
538.792
549.329
560.345
571.785
583.561
595.619
607.911
620.38
632.974
645.666
658.388
671.047
683.582
695.938
708.084
720.02
731.739
743.246
754.55
765.671
776.632
787.444
798.116
808.664
819.101
829.422
839.608
849.633
859.473
869.106
878.519
887.69
896.62
905.302
913.735
921.913
929.836
937.508
944.926
952.096
959.012
965.677
972.087
978.247
984.157
989.823
995.245
1000.42
1005.36
1010.06
1014.52
1018.74
1022.73
1026.48
1029.99
1033.26
1036.29
1039.09
1041.64
1043.94
1046
1047.79
1049.33
1050.59
1051.59
1052.31
1052.75
1052.9
1052.76
1052.32
1051.59
1050.57
1049.23
1047.59
1045.64
1043.38
1040.83
1037.97
1034.82
1031.39
1027.68
1023.72
1019.5
1015.05
1010.37
1005.49
1000.42
995.181
989.782
984.243
978.578
972.803
966.933
960.981
954.959
948.88
942.749
936.586
930.401
924.202
917.993
911.778
905.556
899.329
893.098
886.863
880.629
874.4
868.178
861.967
855.765
849.575
843.399
837.243
831.116
825.029
818.998
813.034
807.171
801.429
794.844
11463.2
1870.48
738.46
474.3
379.066
336.231
314.873
303.425
297.117
294.145
293.327
294.613
298.316
304.221
312.058
321.564
332.485
344.612
357.637
371.252
385.078
398.721
412.205
425.73
438.731
449.735
457.734
463.504
467.845
470.474
471.786
472.265
472.227
471.489
470.38
469.012
467.444
465.71
463.86
461.981
460.215
458.785
457.946
457.651
458.023
459.284
461.409
464.333
467.876
472.245
477.592
483.938
491.263
499.53
508.715
518.824
529.762
541.485
553.899
566.916
580.455
594.448
608.814
623.456
638.303
653.323
668.429
683.495
698.411
713.1
727.519
741.619
755.353
768.698
781.647
794.208
806.392
818.24
829.823
841.238
852.479
863.56
874.515
885.386
896.163
906.811
917.282
927.539
937.551
947.29
956.714
965.846
974.686
983.23
991.474
999.417
1007.06
1014.42
1021.49
1028.28
1034.77
1040.99
1046.93
1052.59
1057.99
1063.13
1068.02
1072.66
1077.05
1081.19
1085.07
1088.71
1092.1
1095.23
1098.12
1100.75
1103.14
1105.27
1107.15
1108.77
1110.12
1111.2
1112.01
1112.56
1112.81
1112.77
1112.42
1111.76
1110.81
1109.55
1107.98
1106.08
1103.87
1101.32
1098.45
1095.26
1091.76
1087.95
1083.84
1079.43
1074.75
1069.8
1064.6
1059.16
1053.51
1047.66
1041.63
1035.43
1029.08
1022.6
1016.02
1009.33
1002.57
995.74
988.86
981.931
974.983
968.027
961.067
954.109
947.153
940.202
933.255
926.314
919.374
912.448
905.541
898.654
891.788
884.941
878.113
871.303
864.516
857.764
851.057
844.406
837.82
831.326
824.983
817.675
11463.2
1847.41
735.853
479.416
388.766
348.932
329.411
319.036
313.574
311.235
310.788
312.611
316.572
322.282
329.342
337.471
346.407
355.982
365.966
376.148
386.352
396.778
406.626
415.147
422.327
428.408
433.728
438.095
441.751
444.72
447.19
449.322
451.26
452.806
454.043
455.03
455.83
456.512
457.153
457.84
458.632
459.504
460.613
462.39
465.077
468.925
473.96
480.084
487.368
495.779
505.323
516.002
527.786
540.6
554.392
569.112
584.673
601.089
618.095
635.528
653.259
671.176
689.169
707.134
724.967
742.542
759.786
776.663
793.101
809.023
824.348
839.029
853.043
866.412
879.173
891.353
902.957
914.055
924.832
935.652
946.343
956.883
967.353
977.882
988.414
998.856
1009.13
1019.17
1028.93
1038.41
1047.59
1056.47
1065.03
1073.23
1081.09
1088.58
1095.72
1102.53
1109.02
1115.18
1121.01
1126.53
1131.74
1136.65
1141.27
1145.62
1149.72
1153.56
1157.16
1160.49
1163.57
1166.4
1168.98
1171.3
1173.37
1175.18
1176.75
1178.07
1179.16
1179.98
1180.53
1180.81
1180.83
1180.62
1180.07
1179.22
1178.1
1176.69
1174.97
1172.95
1170.61
1167.94
1164.95
1161.62
1157.96
1153.97
1149.67
1145.04
1140.1
1134.87
1129.34
1123.54
1117.47
1111.16
1104.63
1097.88
1090.95
1083.85
1076.59
1069.2
1061.7
1054.1
1046.43
1038.69
1030.92
1023.14
1015.36
1007.59
999.815
992.054
984.307
976.574
968.858
961.162
953.475
945.821
938.202
930.615
923.061
915.537
908.039
900.564
893.116
885.711
878.358
871.069
863.848
856.711
849.77
841.78
11463.7
1820.29
732.458
485.857
398.635
360.35
341.797
331.815
326.368
324.008
323.502
325.027
328.379
333.089
338.805
345.291
352.333
359.895
367.829
375.873
383.621
391.007
398.128
405.03
411.591
417.872
423.932
429.706
435.19
440.308
445.06
449.33
452.924
456.175
459.237
462.179
465.093
468.072
471.228
474.686
478.586
483.147
488.581
495.054
502.823
512.19
523.065
535.238
548.726
563.486
579.496
596.808
615.357
634.85
655.093
675.906
697.076
718.332
739.608
760.776
781.709
802.298
822.456
842.116
861.229
879.747
897.645
914.905
931.504
947.388
962.44
976.629
990.009
1002.68
1014.71
1026.14
1036.99
1047.29
1057.13
1066.62
1075.76
1084.69
1093.65
1103.11
1112.74
1122.31
1131.69
1140.8
1149.59
1158.08
1166.3
1174.2
1181.71
1188.82
1195.49
1201.74
1207.58
1213.04
1218.13
1222.87
1227.25
1231.27
1234.97
1238.35
1241.45
1244.27
1246.84
1249.17
1251.25
1253.09
1254.71
1256.12
1257.29
1258.22
1258.93
1259.41
1259.66
1259.7
1259.56
1259.16
1258.48
1257.54
1256.38
1254.97
1253.3
1251.36
1249.15
1246.67
1243.91
1240.85
1237.49
1233.81
1229.82
1225.5
1220.87
1215.91
1210.64
1205.06
1199.17
1192.98
1186.49
1179.74
1172.72
1165.45
1157.96
1150.26
1142.37
1134.3
1126.09
1117.74
1109.28
1100.72
1092.1
1083.41
1074.69
1065.99
1057.29
1048.6
1039.93
1031.27
1022.63
1014.02
1005.45
996.908
988.435
980.016
971.645
963.316
955.028
946.777
938.563
930.381
922.239
914.153
906.131
898.181
890.31
882.518
874.973
866.339
11462.8
1800.88
730.987
491.187
405.602
368.151
350.12
340.343
334.977
332.627
332.049
333.24
336.165
340.376
345.658
351.783
358.448
365.552
372.904
380.569
388.653
396.708
404.761
412.867
421.016
429.225
437.517
445.831
454.052
462.098
470.002
477.749
485.497
493.21
500.957
508.815
516.904
525.346
534.297
543.924
554.412
565.975
578.757
592.853
608.32
625.08
643.071
662.513
683.334
705.434
728.691
753.042
777.982
803.325
828.81
854.178
879.164
903.516
927.068
949.678
971.265
991.773
1011.21
1029.58
1046.95
1063.39
1078.93
1093.66
1107.64
1120.94
1133.61
1145.68
1157
1167.82
1178.22
1188.24
1197.86
1207.02
1215.7
1223.67
1231.21
1238.63
1246.23
1254.21
1262.14
1269.88
1277.32
1284.41
1291.12
1297.46
1303.43
1309.01
1314.16
1318.86
1323.09
1326.86
1330.22
1333.19
1335.86
1338.17
1340.14
1341.79
1343.15
1344.23
1345.07
1345.69
1346.12
1346.36
1346.41
1346.25
1345.96
1345.55
1344.91
1344.1
1343.12
1341.97
1340.64
1339.15
1337.48
1335.61
1333.54
1331.26
1328.77
1326.07
1323.15
1320
1316.61
1312.98
1309.09
1304.95
1300.52
1295.81
1290.8
1285.5
1279.9
1274.01
1267.82
1261.34
1254.57
1247.52
1240.19
1232.6
1224.76
1216.69
1208.4
1199.92
1191.25
1182.42
1173.45
1164.34
1155.13
1145.83
1136.45
1127.02
1117.54
1108.04
1098.53
1089.02
1079.52
1070.04
1060.58
1051.15
1041.75
1032.4
1023.13
1013.92
1004.76
995.651
986.588
977.573
968.607
959.707
950.88
942.126
933.445
924.849
916.34
907.916
899.782
890.574
11461.8
1785.82
730.721
492.424
408.369
373.034
355.989
347.083
342.676
341.048
341.003
343.198
347.085
352.4
358.824
366.298
374.965
384.16
393.946
404.844
416.912
429.451
442.534
456.301
470.723
485.71
501.162
516.893
532.854
548.978
565.249
581.604
598.103
614.631
631.204
647.869
664.752
682.003
699.83
718.503
738.248
759.163
781.327
804.747
829.34
855.023
881.856
910.48
940.097
970.327
1000.74
1030.66
1059.91
1088.25
1115.45
1141.21
1165.33
1187.67
1208.17
1226.82
1243.62
1258.66
1272.03
1283.84
1294.41
1303.79
1312.16
1319.66
1326.5
1332.8
1338.86
1344.83
1350.78
1356.72
1362.6
1368.37
1373.92
1379.08
1384.13
1389.07
1394.06
1399.55
1405.28
1410.52
1415.32
1419.75
1423.77
1427.45
1430.77
1433.73
1436.31
1438.51
1440.29
1441.65
1442.6
1443.14
1443.3
1443.16
1442.88
1442.28
1441.4
1440.28
1438.95
1437.45
1435.8
1434.03
1432.15
1430.17
1428.09
1425.9
1423.63
1421.28
1418.83
1416.27
1413.62
1410.86
1407.99
1405
1401.89
1398.64
1395.24