/*--------------------------------*- C++ -*----------------------------------*\
  =========                 |
  \\      /  F ield         | OpenFOAM: The Open Source CFD Toolbox
   \\    /   O peration     | Website:  https://openfoam.org
    \\  /    A nd           | Version:  13
     \\/     M anipulation  |
\*---------------------------------------------------------------------------*/
FoamFile
{
    format      ascii;
    class       volScalarField;
    location    "500";
    object      p;
}
// * * * * * * * * * * * * * * * * * * * * * * * * * * * * * * * * * * * * * //

dimensions      [0 2 -2 0 0 0 0];

internalField   nonuniform List<scalar> 
12225
(
-4.21926
-5.08795
-5.49259
-5.62306
-5.74594
-5.88789
-6.00876
-6.10675
-6.19675
-6.28007
-6.35698
-6.42854
-6.49777
-6.56674
-6.63952
-6.72061
-6.81605
-6.93785
-4.48526
-5.11861
-5.4658
-5.59328
-5.71162
-5.84654
-5.97061
-6.07581
-6.16403
-6.24495
-6.32305
-6.39847
-6.47225
-6.5456
-6.62083
-6.70164
-6.78723
-6.86323
-4.67787
-5.10726
-5.44266
-5.59956
-5.72402
-5.85599
-5.97875
-6.08214
-6.16808
-6.24697
-6.32317
-6.3967
-6.46906
-6.54165
-6.61492
-6.69003
-6.76381
-6.82592
-4.81802
-5.13322
-5.43572
-5.60653
-5.7301
-5.85488
-5.97262
-6.07297
-6.15777
-6.23579
-6.31122
-6.38444
-6.45632
-6.52748
-6.59819
-6.66827
-6.73525
-6.79139
-4.94177
-5.17499
-5.44297
-5.61494
-5.73763
-5.85683
-5.97047
-6.06891
-6.15333
-6.23103
-6.30597
-6.37853
-6.44911
-6.51811
-6.5856
-6.65085
-6.7119
-6.76325
-5.04815
-5.22853
-5.45667
-5.62476
-5.74603
-5.85939
-5.96782
-6.06344
-6.14672
-6.22359
-6.29748
-6.36879
-6.43763
-6.50429
-6.56868
-6.6299
-6.68627
-6.7339
-5.14133
-5.28212
-5.47828
-5.63699
-5.75431
-5.86169
-5.96507
-6.05824
-6.14084
-6.21727
-6.29036
-6.36055
-6.42785
-6.49242
-6.55406
-6.61186
-6.66439
-6.70899
-5.22635
-5.33507
-5.50527
-5.65133
-5.76342
-5.86564
-5.9646
-6.05537
-6.13691
-6.21237
-6.28408
-6.35252
-6.41775
-6.4798
-6.53846
-6.59288
-6.64191
-6.68365
-5.30495
-5.38888
-5.53335
-5.66621
-5.7731
-5.87082
-5.96548
-6.05338
-6.13324
-6.20723
-6.27722
-6.34371
-6.40677
-6.46638
-6.52227
-6.57373
-6.61989
-6.65949
-5.37635
-5.44146
-5.56198
-5.68204
-5.78358
-5.87686
-5.96712
-6.0518
-6.12957
-6.2018
-6.26993
-6.33444
-6.39534
-6.45259
-6.50591
-6.55475
-6.59852
-6.63631
-5.44052
-5.49123
-5.59136
-5.69898
-5.79459
-5.8832
-5.96897
-6.05022
-6.12562
-6.1959
-6.26209
-6.32457
-6.38333
-6.43831
-6.48926
-6.5358
-6.57754
-6.6139
-5.4935
-5.5342
-5.61885
-5.71552
-5.80522
-5.88934
-5.97094
-6.04889
-6.12187
-6.19016
-6.25446
-6.31503
-6.37183
-6.42481
-6.47376
-6.51844
-6.55861
-6.59384
-5.54092
-5.57425
-5.64602
-5.73246
-5.81612
-5.89569
-5.97315
-6.04771
-6.11814
-6.18433
-6.24667
-6.30528
-6.36019
-6.41124
-6.45839
-6.50139
-6.5402
-6.57449
-5.58912
-5.61635
-5.67619
-5.75199
-5.82869
-5.90303
-5.97584
-6.0465
-6.11387
-6.17753
-6.23754
-6.29396
-6.34674
-6.3958
-6.44106
-6.48244
-6.51991
-6.55335
-5.6362
-5.65839
-5.70781
-5.77325
-5.84243
-5.91106
-5.97886
-6.04525
-6.10912
-6.16986
-6.22723
-6.28124
-6.33175
-6.37875
-6.42213
-6.46192
-6.49814
-6.53077
-5.67942
-5.69759
-5.73845
-5.79454
-5.85623
-5.91898
-5.98172
-6.04367
-6.10382
-6.16133
-6.21593
-6.26735
-6.3156
-6.36049
-6.40211
-6.44036
-6.47547
-6.50733
-5.71485
-5.72998
-5.76438
-5.81288
-5.86793
-5.92524
-5.98325
-6.04101
-6.09749
-6.15188
-6.20366
-6.25263
-6.29864
-6.34163
-6.38156
-6.4185
-6.45252
-6.48376
-5.73661
-5.74981
-5.7801
-5.82357
-5.87389
-5.92711
-5.98148
-6.03595
-6.08946
-6.1412
-6.19063
-6.23751
-6.28163
-6.32299
-6.36153
-6.39734
-6.43048
-6.46113
-5.73531
-5.74797
-5.77722
-5.81936
-5.86825
-5.92003
-5.97298
-6.02604
-6.07816
-6.12855
-6.17666
-6.22228
-6.26525
-6.30557
-6.3432
-6.37827
-6.41082
-6.44109
-5.70305
-5.71744
-5.7503
-5.79661
-5.84893
-5.90326
-5.95821
-6.01289
-6.06616
-6.11728
-6.16575
-6.21152
-6.25443
-6.2946
-6.33199
-6.36684
-6.39916
-6.42927
-5.65684
-5.67435
-5.71386
-5.76756
-5.82577
-5.88453
-5.9432
-6.00096
-6.05664
-6.10941
-6.1591
-6.20563
-6.24909
-6.28948
-6.32699
-6.36175
-6.39401
-6.42397
-5.59746
-5.62031
-5.67049
-5.73483
-5.80063
-5.86502
-5.92862
-5.99055
-6.04932
-6.1043
-6.15551
-6.20313
-6.24728
-6.28811
-6.32583
-6.36066
-6.39285
-6.42272
-5.5269
-5.55836
-5.62413
-5.7017
-5.77565
-5.84626
-5.91563
-5.98225
-6.04439
-6.10176
-6.15473
-6.20354
-6.24837
-6.28953
-6.32732
-6.36218
-6.39435
-6.42415
-5.44594
-5.49123
-5.57863
-5.67064
-5.75208
-5.82924
-5.90509
-5.97659
-6.04188
-6.10153
-6.15621
-6.20622
-6.25178
-6.29317
-6.33085
-6.36539
-6.39737
-6.42724
-5.35445
-5.42161
-5.53775
-5.64337
-5.73036
-5.81417
-5.8969
-5.97329
-6.04162
-6.10326
-6.15942
-6.21039
-6.25642
-6.29798
-6.33556
-6.3696
-6.40074
-6.42962
-5.25227
-5.35188
-5.50329
-5.62036
-5.71093
-5.80103
-5.88992
-5.97047
-6.04183
-6.10567
-6.16341
-6.21543
-6.26194
-6.30348
-6.34102
-6.37552
-6.40693
-6.43531
-5.13875
-5.28688
-5.47257
-5.5968
-5.69216
-5.79004
-5.88464
-5.96803
-6.04145
-6.10698
-6.16591
-6.21857
-6.2656
-6.30668
-6.34264
-6.37671
-6.40888
-6.43809
-5.00391
-5.24189
-5.45117
-5.56986
-5.67099
-5.78019
-5.88312
-5.97141
-6.04796
-6.11618
-6.17708
-6.23048
-6.27823
-6.31989
-6.3547
-6.38682
-6.41755
-6.44756
-4.80717
-5.21271
-5.45391
-5.55545
-5.6533
-5.76764
-5.8746
-5.96536
-6.04363
-6.11397
-6.1769
-6.23196
-6.27953
-6.32133
-6.35774
-6.38831
-6.41484
-6.4407
-4.54031
-5.14513
-5.45205
-5.56363
-5.66851
-5.79034
-5.90167
-5.99408
-6.07291
-6.14363
-6.20679
-6.26203
-6.30805
-6.34789
-6.38418
-6.4115
-6.43205
-6.44993
-7.37214
-7.37224
-7.37227
-7.37222
-7.37193
-7.37084
-7.36855
-7.36542
-7.3624
-7.36042
-7.36052
-7.36294
-7.36724
-7.37269
-7.37853
-7.3841
-7.38885
-7.39236
-7.39452
-7.39557
-7.39582
-7.39547
-7.39471
-7.39379
-7.39297
-7.39239
-7.39207
-7.3919
-7.39173
-7.39143
-7.39097
-7.39037
-7.38961
-7.38861
-7.38731
-7.38584
-7.38455
-7.38414
-7.38511
-7.38729
-7.38989
-7.39215
-7.39381
-7.39527
-7.397
-7.39941
-7.40289
-7.40703
-7.41072
-7.41348
-7.41706
-7.42518
-7.44204
-7.46804
-7.50189
-7.54311
-7.59224
-7.64922
-7.71298
-7.7817
-7.85311
-7.92488
-7.99526
-8.06326
-8.12817
-8.18899
-8.24531
-8.29701
-8.34405
-8.38649
-8.42441
-8.4579
-8.48705
-8.51192
-8.53255
-8.54894
-8.5611
-8.56898
-8.57254
-8.57169
-8.56638
-8.55651
-8.54204
-8.52289
-8.49907
-8.47052
-8.43721
-8.39907
-8.35603
-8.30803
-8.25503
-8.19702
-8.13399
-8.06591
-7.99277
-7.91455
-7.83128
-7.74306
-7.65002
-7.55221
-7.44969
-7.34241
-7.23018
-7.1128
-6.99027
-6.86272
-6.73008
-6.59234
-6.44937
-6.30117
-6.14761
-5.98865
-5.82418
-5.65417
-5.47848
-5.29712
-5.10995
-4.91702
-4.71832
-4.51399
-4.30407
-4.08863
-3.86762
-3.64115
-3.4093
-3.17234
-2.93047
-2.684
-2.43322
-2.17847
-1.9201
-1.65852
-1.39414
-1.12738
-0.858696
-0.588564
-0.317555
-0.0459902
0.225938
0.497918
0.769451
1.04015
1.30961
1.5775
1.84349
2.10733
2.36876
2.6276
2.88367
3.13685
3.38705
3.63422
3.87831
4.11932
4.35726
4.59217
4.82408
5.05308
5.27924
5.50265
5.7234
5.94159
6.15731
6.37064
6.58161
6.79026
6.99659
7.2006
7.40225
7.60147
7.7982
7.99229
8.18363
8.37202
8.55727
8.7392
8.91783
9.09296
9.26749
9.43193
-7.37323
-7.37339
-7.37371
-7.37408
-7.3741
-7.37338
-7.37161
-7.36929
-7.36759
-7.36749
-7.36931
-7.37292
-7.37784
-7.38346
-7.38915
-7.39442
-7.39891
-7.40239
-7.40468
-7.40561
-7.40517
-7.40362
-7.40136
-7.39884
-7.39646
-7.39453
-7.39317
-7.39225
-7.39155
-7.3909
-7.39028
-7.38972
-7.38914
-7.38843
-7.38748
-7.38642
-7.38581
-7.3863
-7.38816
-7.39086
-7.39344
-7.39504
-7.39546
-7.39533
-7.39491
-7.39422
-7.39434
-7.39753
-7.40463
-7.41188
-7.41865
-7.42889
-7.4443
-7.46596
-7.49679
-7.53904
-7.59244
-7.65482
-7.7234
-7.79528
-7.86813
-7.9402
-8.01053
-8.0778
-8.14058
-8.19876
-8.25248
-8.30169
-8.34651
-8.38703
-8.42334
-8.45553
-8.48365
-8.50774
-8.52779
-8.54379
-8.55571
-8.56348
-8.56704
-8.56629
-8.56115
-8.55151
-8.53732
-8.51848
-8.49498
-8.46676
-8.4338
-8.39604
-8.35341
-8.30585
-8.25333
-8.19583
-8.13337
-8.06594
-7.99353
-7.91615
-7.83377
-7.74642
-7.65407
-7.55671
-7.45437
-7.34703
-7.23479
-7.11776
-6.99594
-6.86917
-6.73739
-6.60051
-6.45848
-6.31121
-6.15864
-6.00068
-5.83727
-5.6683
-5.49374
-5.31348
-5.12747
-4.93567
-4.73814
-4.53497
-4.32621
-4.11189
-3.892
-3.6666
-3.43582
-3.19986
-2.95895
-2.71338
-2.46343
-2.20945
-1.95178
-1.69081
-1.42694
-1.16058
-0.89212
-0.621962
-0.350561
-0.0784679
0.193736
0.465755
0.737372
1.0082
1.27785
1.54598
1.81225
2.07639
2.33816
2.59736
2.8538
3.10737
3.35795
3.6055
3.84996
4.09134
4.32963
4.56488
4.79712
5.02643
5.25287
5.47654
5.69753
5.91594
6.13186
6.34537
6.55651
6.76532
6.97182
7.17599
7.37781
7.57721
7.77413
7.96845
8.16006
8.34885
8.53465
8.71726
8.89679
9.07241
9.24927
9.41321
-7.37443
-7.37442
-7.37445
-7.37453
-7.37462
-7.37465
-7.37484
-7.3757
-7.37772
-7.38106
-7.38554
-7.39082
-7.39651
-7.40217
-7.40744
-7.41202
-7.41569
-7.41834
-7.41989
-7.42029
-7.41951
-7.41766
-7.4149
-7.41141
-7.40742
-7.40317
-7.39894
-7.395
-7.39157
-7.38878
-7.38665
-7.38501
-7.38357
-7.38217
-7.38107
-7.38083
-7.38207
-7.38501
-7.38906
-7.39279
-7.39474
-7.39399
-7.39147
-7.38928
-7.38903
-7.39016
-7.39194
-7.39687
-7.40682
-7.42085
-7.43911
-7.46276
-7.49214
-7.52768
-7.56995
-7.61904
-7.67409
-7.7336
-7.79593
-7.85944
-7.9228
-7.98511
-8.04578
-8.10415
-8.1595
-8.21151
-8.26006
-8.30505
-8.34645
-8.38423
-8.41839
-8.44891
-8.47576
-8.4989
-8.51828
-8.53384
-8.54549
-8.55315
-8.55673
-8.55612
-8.5512
-8.54188
-8.52806
-8.50964
-8.48657
-8.45881
-8.4263
-8.38901
-8.34686
-8.2998
-8.24777
-8.19078
-8.12883
-8.06194
-7.9901
-7.91336
-7.83171
-7.74517
-7.65369
-7.55726
-7.45586
-7.34951
-7.23827
-7.12224
-7.00141
-6.87568
-6.745
-6.60925
-6.46839
-6.32232
-6.17101
-6.01432
-5.85223
-5.68462
-5.51145
-5.33259
-5.14802
-4.95768
-4.76162
-4.5599
-4.3526
-4.1397
-3.92121
-3.69716
-3.4677
-3.23302
-2.99335
-2.74894
-2.50009
-2.24713
-1.9904
-1.7303
-1.4672
-1.20153
-0.933682
-0.664093
-0.393201
-0.121508
0.150469
0.422395
0.693974
0.964828
1.23457
1.50283
1.76929
2.03366
2.29569
2.55516
2.81191
3.06577
3.31666
3.5645
3.80925
4.0509
4.28946
4.52495
4.75742
4.98693
5.21354
5.43735
5.65844
5.87692
6.09288
6.30639
6.51752
6.7263
6.93274
7.13684
7.33858
7.53789
7.73473
7.92898
8.12052
8.3092
8.49496
8.67765
8.85771
9.03374
9.21329
9.37291
-7.37548
-7.37522
-7.37488
-7.37487
-7.37591
-7.37843
-7.38231
-7.38723
-7.39282
-7.39881
-7.4049
-7.41087
-7.41649
-7.42159
-7.42599
-7.42956
-7.43217
-7.43377
-7.43433
-7.43381
-7.43221
-7.4296
-7.42604
-7.42162
-7.41642
-7.41055
-7.40417
-7.39751
-7.39089
-7.38467
-7.37914
-7.37448
-7.37085
-7.36853
-7.36814
-7.37031
-7.37473
-7.38002
-7.38449
-7.38695
-7.38721
-7.38607
-7.38513
-7.38589
-7.38908
-7.39506
-7.40444
-7.41812
-7.43687
-7.46073
-7.48933
-7.5223
-7.55941
-7.60047
-7.64525
-7.69342
-7.74454
-7.79796
-7.85295
-7.90867
-7.96434
-8.0193
-8.07302
-8.125
-8.17482
-8.22213
-8.26672
-8.30843
-8.34713
-8.38274
-8.41517
-8.44434
-8.47016
-8.49256
-8.51143
-8.52667
-8.53816
-8.5458
-8.54947
-8.54904
-8.54439
-8.53541
-8.52198
-8.504
-8.48139
-8.45409
-8.42205
-8.38523
-8.34357
-8.297
-8.24548
-8.18899
-8.12757
-8.0612
-7.98992
-7.91373
-7.83267
-7.74674
-7.65593
-7.56025
-7.45968
-7.35425
-7.244
-7.12898
-7.00917
-6.88449
-6.75489
-6.62028
-6.48059
-6.33574
-6.18566
-6.03027
-5.86949
-5.70324
-5.53143
-5.35398
-5.17082
-4.98191
-4.7873
-4.58703
-4.38115
-4.16962
-3.95245
-3.7297
-3.5015
-3.26803
-3.02952
-2.78621
-2.53838
-2.28637
-2.03051
-1.77118
-1.50877
-1.24368
-0.976337
-0.707187
-0.436687
-0.1653
0.106514
0.378405
0.650023
0.920971
1.19086
1.45931
1.72599
1.99062
2.25294
2.51272
2.76977
3.02394
3.27514
3.52326
3.76829
4.01018
4.24898
4.48467
4.71733
4.94699
5.17372
5.39761
5.61877
5.83726
6.0532
6.26667
6.47772
6.6864
6.89272
7.09668
7.29825
7.49739
7.69404
7.88812
8.07952
8.26813
8.45387
8.6366
8.81687
8.99273
9.17294
9.32622
-7.37762
-7.37708
-7.3767
-7.37792
-7.38181
-7.38783
-7.39493
-7.40239
-7.40974
-7.4167
-7.42312
-7.42894
-7.43409
-7.43851
-7.44212
-7.44482
-7.44656
-7.44728
-7.44694
-7.44554
-7.44305
-7.43952
-7.43498
-7.42949
-7.42309
-7.41587
-7.40788
-7.39926
-7.39028
-7.38129
-7.37284
-7.36557
-7.36025
-7.35787
-7.35904
-7.36297
-7.3677
-7.37201
-7.37541
-7.37781
-7.37971
-7.38196
-7.38574
-7.39212
-7.40204
-7.41629
-7.4352
-7.45841
-7.48528
-7.51551
-7.54871
-7.5846
-7.62311
-7.66418
-7.70771
-7.75347
-7.80111
-7.85018
-7.90019
-7.95057
-8.00081
-8.05044
-8.09905
-8.14626
-8.19174
-8.23522
-8.27648
-8.31535
-8.35167
-8.38531
-8.41614
-8.44404
-8.46888
-8.49054
-8.50888
-8.52377
-8.53507
-8.54262
-8.54631
-8.54597
-8.54149
-8.53273
-8.51956
-8.50187
-8.47957
-8.45259
-8.42087
-8.38436
-8.34301
-8.29676
-8.24556
-8.18942
-8.12835
-8.06236
-7.99148
-7.91571
-7.8351
-7.74964
-7.65937
-7.56428
-7.46441
-7.35977
-7.25038
-7.13626
-7.01735
-6.89364
-6.76501
-6.63144
-6.49281
-6.34909
-6.20014
-6.04594
-5.88635
-5.72134
-5.55076
-5.37457
-5.19265
-5.00503
-4.8117
-4.61271
-4.40802
-4.19766
-3.98158
-3.75989
-3.53269
-3.30019
-3.06257
-2.8201
-2.57304
-2.32171
-2.06646
-1.80765
-1.54569
-1.28095
-1.0139
-0.744968
-0.474637
-0.20334
0.0684872
0.340469
0.612233
0.883357
1.15345
1.42212
1.68906
1.95394
2.21652
2.47656
2.73386
2.98828
3.23969
3.48802
3.73321
3.97527
4.21418
4.44999
4.68272
4.91243
5.13919
5.36308
5.5842
5.80265
6.01852
6.2319
6.44284
6.6514
6.85758
7.06141
7.26285
7.46186
7.6584
7.85238
8.04371
8.23226
8.41798
8.60063
8.78076
8.95587
9.13558
9.28199
-7.38163
-7.38077
-7.38116
-7.38523
-7.39231
-7.40055
-7.40897
-7.41707
-7.42458
-7.43142
-7.43759
-7.44306
-7.4478
-7.45172
-7.45476
-7.45685
-7.45794
-7.45799
-7.45698
-7.45489
-7.45172
-7.4475
-7.44223
-7.43594
-7.42861
-7.4203
-7.41114
-7.40127
-7.39092
-7.38055
-7.37091
-7.36294
-7.35776
-7.35602
-7.35698
-7.35911
-7.36161
-7.36459
-7.36839
-7.37325
-7.3792
-7.38665
-7.39686
-7.41089
-7.42891
-7.45073
-7.47592
-7.50419
-7.53508
-7.56826
-7.6035
-7.64063
-7.67955
-7.72015
-7.76232
-7.80588
-7.85058
-7.8961
-7.94211
-7.98824
-8.03416
-8.07953
-8.12406
-8.16745
-8.20944
-8.2498
-8.28832
-8.32483
-8.35915
-8.39112
-8.42059
-8.44741
-8.47141
-8.49243
-8.51032
-8.52491
-8.53602
-8.5435
-8.54718
-8.54691
-8.54253
-8.53391
-8.5209
-8.50339
-8.48127
-8.45445
-8.42289
-8.38651
-8.34529
-8.29917
-8.24811
-8.19211
-8.13119
-8.06539
-7.9947
-7.91918
-7.83884
-7.75371
-7.6638
-7.56917
-7.46983
-7.36581
-7.25711
-7.14372
-7.02561
-6.90271
-6.77497
-6.6423
-6.50465
-6.36191
-6.21401
-6.06086
-5.90237
-5.73845
-5.56899
-5.39389
-5.21309
-5.02659
-4.83438
-4.63646
-4.43278
-4.22333
-4.00812
-3.78724
-3.56081
-3.329
-3.09201
-2.8501
-2.60352
-2.3526
-2.09768
-1.83913
-1.57733
-1.31271
-1.0457
-0.776773
-0.506385
-0.234975
0.0370404
0.30926
0.581284
0.852678
1.12304
1.39198
1.65918
1.92432
2.18713
2.44738
2.70487
2.95945
3.21098
3.45941
3.70466
3.94674
4.18565
4.42144
4.6541
4.88373
5.11038
5.33414
5.55512
5.77341
5.9891
6.20229
6.41306
6.62144
6.82745
7.0311
7.23238
7.43125
7.62766
7.82153
8.01277
8.20124
8.38685
8.56929
8.74907
8.9232
9.10221
9.24193
-7.38673
-7.38623
-7.38858
-7.39535
-7.40391
-7.4125
-7.42072
-7.42842
-7.43557
-7.44212
-7.44803
-7.45324
-7.45767
-7.46124
-7.46389
-7.46558
-7.46624
-7.46584
-7.46438
-7.46184
-7.45823
-7.45356
-7.4478
-7.44089
-7.43285
-7.42385
-7.41407
-7.40374
-7.39318
-7.38296
-7.37396
-7.36714
-7.36288
-7.36043
-7.35905
-7.35882
-7.36022
-7.3638
-7.36944
-7.37704
-7.38728
-7.40084
-7.41783
-7.4381
-7.46145
-7.48762
-7.51626
-7.54708
-7.57989
-7.61447
-7.65062
-7.68817
-7.72697
-7.76688
-7.80778
-7.84951
-7.89188
-7.93468
-7.97769
-8.02066
-8.06337
-8.10557
-8.14703
-8.18752
-8.22685
-8.2648
-8.3012
-8.33586
-8.36861
-8.39928
-8.42769
-8.45366
-8.47702
-8.49757
-8.51513
-8.52951
-8.54051
-8.54795
-8.55165
-8.55143
-8.54713
-8.53859
-8.52567
-8.50824
-8.48618
-8.45941
-8.42785
-8.39146
-8.35019
-8.30402
-8.25289
-8.19683
-8.13586
-8.07004
-7.99936
-7.92389
-7.84363
-7.75866
-7.66897
-7.57464
-7.47568
-7.37212
-7.26397
-7.15117
-7.03372
-6.91152
-6.78455
-6.65269
-6.5159
-6.37404
-6.2271
-6.0749
-5.91742
-5.75447
-5.58601
-5.41189
-5.23211
-5.04659
-4.85537
-4.65833
-4.45549
-4.24677
-4.03225
-3.81197
-3.58609
-3.35475
-3.11816
-2.87656
-2.63022
-2.37946
-2.12462
-1.86608
-1.60421
-1.33947
-1.07229
-0.803169
-0.532533
-0.260819
0.0115396
0.284135
0.556524
0.828276
1.09897
1.36823
1.63571
1.90109
2.16412
2.42453
2.68215
2.9368
3.18837
3.43677
3.68197
3.92395
4.16275
4.39836
4.63084
4.86024
5.08665
5.31015
5.53085
5.74885
5.96428
6.17721
6.38772
6.59584
6.80161
7.00504
7.20612
7.40482
7.60109
7.79484
7.98597
8.17432
8.35978
8.54197
8.72132
8.89443
9.07286
9.20633
-7.39081
-7.39144
-7.39627
-7.40424
-7.41258
-7.42057
-7.42822
-7.43551
-7.44235
-7.44868
-7.4544
-7.45941
-7.46364
-7.46701
-7.46946
-7.47092
-7.47135
-7.47072
-7.46903
-7.46626
-7.46243
-7.45749
-7.45135
-7.44404
-7.4358
-7.42681
-7.41721
-7.4073
-7.39757
-7.38876
-7.38147
-7.37565
-7.37068
-7.36637
-7.36354
-7.36303
-7.36495
-7.36963
-7.37755
-7.38893
-7.40367
-7.4216
-7.44255
-7.46629
-7.49254
-7.52103
-7.55153
-7.58381
-7.61767
-7.65292
-7.68938
-7.7269
-7.76533
-7.80454
-7.84439
-7.88472
-7.9254
-7.96627
-8.00718
-8.04793
-8.08836
-8.12828
-8.16754
-8.20594
-8.24332
-8.27951
-8.31435
-8.34766
-8.37926
-8.40899
-8.43665
-8.46204
-8.48497
-8.50523
-8.52262
-8.53691
-8.54789
-8.55535
-8.5591
-8.55894
-8.5547
-8.54622
-8.53333
-8.51591
-8.49381
-8.46696
-8.43528
-8.39872
-8.35725
-8.31084
-8.25947
-8.20315
-8.14195
-8.0759
-8.00505
-7.92944
-7.84912
-7.76412
-7.6745
-7.58033
-7.48162
-7.37839
-7.27063
-7.15832
-7.0414
-6.91982
-6.79349
-6.66236
-6.52632
-6.38529
-6.23918
-6.08789
-5.9313
-5.76927
-5.6017
-5.4285
-5.24963
-5.06502
-4.87463
-4.67837
-4.4762
-4.26808
-4.05408
-3.83426
-3.60876
-3.37771
-3.14134
-2.89986
-2.65356
-2.40276
-2.1478
-1.88906
-1.62695
-1.3619
-1.09438
-0.824873
-0.55382
-0.281652
-0.00881214
0.264262
0.53711
0.80929
1.08038
1.34999
1.61778
1.88342
2.14665
2.40721
2.66491
2.91958
3.17112
3.41942
3.66449
3.90629
4.14486
4.38021
4.6124
4.84146
5.06751
5.29064
5.51096
5.72858
5.94363
6.15621
6.36638
6.57418
6.77965
6.98281
7.18365
7.38214
7.57823
7.77185
7.96285
8.15107
8.33634
8.51824
8.69714
8.86928
9.04728
9.1751
-7.39213
-7.39427
-7.40075
-7.40858
-7.41624
-7.42369
-7.43097
-7.43799
-7.44466
-7.45086
-7.4565
-7.46146
-7.46564
-7.46897
-7.47138
-7.47281
-7.47321
-7.47258
-7.47087
-7.46809
-7.46421
-7.45917
-7.45294
-7.44575
-7.43783
-7.42932
-7.42048
-7.41176
-7.40359
-7.39623
-7.38959
-7.38341
-7.37772
-7.37309
-7.37048
-7.37062
-7.37394
-7.38079
-7.39125
-7.40512
-7.42227
-7.44246
-7.46544
-7.49094
-7.51869
-7.54844
-7.57997
-7.61307
-7.64751
-7.68313
-7.71974
-7.75719
-7.79534
-7.83403
-7.87314
-7.91253
-7.95208
-7.99166
-8.03114
-8.07038
-8.10926
-8.14762
-8.18536
-8.22231
-8.25835
-8.29334
-8.32711
-8.35951
-8.39037
-8.4195
-8.44671
-8.47178
-8.4945
-8.51466
-8.53202
-8.54635
-8.5574
-8.56496
-8.5688
-8.56872
-8.56454
-8.55609
-8.54319
-8.5257
-8.50349
-8.47645
-8.44452
-8.40765
-8.36582
-8.31902
-8.26721
-8.21047
-8.14885
-8.08242
-8.01123
-7.93531
-7.85476
-7.7696
-7.67992
-7.58577
-7.48718
-7.38416
-7.27669
-7.16476
-7.04828
-6.92722
-6.80146
-6.67097
-6.53561
-6.39535
-6.25001
-6.09956
-5.94379
-5.78262
-5.61588
-5.44356
-5.26551
-5.08174
-4.89207
-4.69648
-4.49485
-4.28724
-4.07363
-3.85415
-3.62888
-3.398
-3.16167
-2.92016
-2.67374
-2.42274
-2.16751
-1.90841
-1.64589
-1.38039
-1.11238
-0.842355
-0.570744
-0.298006
-0.0245823
0.249044
0.522417
0.795074
1.06659
1.33658
1.60468
1.87058
2.13398
2.39465
2.65238
2.90704
3.15847
3.40662
3.65145
3.89301
4.13127
4.36629
4.59808
4.82672
5.05231
5.27497
5.4948
5.71197
5.92658
6.13875
6.34853
6.55596
6.7611
6.96395
7.16452
7.36279
7.55872
7.75219
7.94306
8.13113
8.31623
8.49781
8.67629
8.84751
9.02519
9.14802
-7.3893
-7.39278
-7.39962
-7.40693
-7.41419
-7.42141
-7.42853
-7.43548
-7.44214
-7.44839
-7.45411
-7.45919
-7.46353
-7.46703
-7.46962
-7.47122
-7.47181
-7.47133
-7.46976
-7.46709
-7.4633
-7.45837
-7.45242
-7.44567
-7.43836
-7.43071
-7.42304
-7.41553
-7.40822
-7.40115
-7.39442
-7.38819
-7.38287
-7.37915
-7.37779
-7.37933
-7.38412
-7.39238
-7.40416
-7.41933
-7.43771
-7.45906
-7.4831
-7.50956
-7.53816
-7.56867
-7.60086
-7.63449
-7.66938
-7.70532
-7.74213
-7.77964
-7.8177
-7.85614
-7.89486
-7.93372
-7.97261
-8.01141
-8.05002
-8.08832
-8.12621
-8.16359
-8.20036
-8.2364
-8.2716
-8.30583
-8.33896
-8.37084
-8.40129
-8.43013
-8.45713
-8.4821
-8.50481
-8.52502
-8.54248
-8.55694
-8.56814
-8.57585
-8.57983
-8.57987
-8.57577
-8.56733
-8.5544
-8.53679
-8.51439
-8.48709
-8.45481
-8.4175
-8.37517
-8.3278
-8.27541
-8.21807
-8.15587
-8.0889
-8.0172
-7.94086
-7.85993
-7.77449
-7.68462
-7.59038
-7.49181
-7.38891
-7.28166
-7.17001
-7.05392
-6.93328
-6.80805
-6.67813
-6.54343
-6.40386
-6.25929
-6.1096
-5.95463
-5.79425
-5.62834
-5.45682
-5.27958
-5.09653
-4.90753
-4.71249
-4.51135
-4.30413
-4.09085
-3.8716
-3.64646
-3.41562
-3.17924
-2.93758
-2.69092
-2.4396
-2.18396
-1.92441
-1.66137
-1.39531
-1.12671
-0.856059
-0.5838
-0.310403
-0.0363393
0.237896
0.511831
0.784996
1.05697
1.32735
1.59577
1.86191
2.12548
2.38625
2.644
2.89858
3.14987
3.39781
3.64236
3.88359
4.1215
4.3561
4.58742
4.81554
5.04059
5.26269
5.48198
5.6986
5.91272
6.12442
6.33377
6.5408
6.74555
6.94806
7.14834
7.34637
7.54211
7.73543
7.92617
8.11408
8.29898
8.48025
8.6583
8.82868
9.00608
9.12466
-7.38065
-7.38486
-7.39149
-7.39865
-7.40598
-7.4133
-7.42054
-7.42762
-7.43446
-7.44095
-7.44695
-7.45234
-7.45699
-7.46081
-7.4637
-7.4656
-7.46646
-7.46625
-7.46494
-7.46253
-7.45905
-7.45455
-7.4492
-7.44319
-7.4367
-7.42984
-7.42273
-7.41552
-7.4083
-7.40123
-7.39459
-7.38882
-7.38437
-7.38173
-7.38147
-7.38409
-7.38993
-7.39918
-7.41186
-7.42789
-7.44707
-7.46918
-7.49392
-7.52104
-7.55028
-7.5814
-7.61416
-7.64834
-7.68372
-7.72008
-7.75724
-7.795
-7.8332
-7.87171
-7.91037
-7.94907
-7.98769
-8.02612
-8.06428
-8.10208
-8.13945
-8.17629
-8.21252
-8.24804
-8.28277
-8.31659
-8.34937
-8.38098
-8.41126
-8.44
-8.46702
-8.49208
-8.51493
-8.53534
-8.55304
-8.56774
-8.57919
-8.58711
-8.59127
-8.59144
-8.58741
-8.57899
-8.56598
-8.54823
-8.52558
-8.49792
-8.46518
-8.42732
-8.38432
-8.33623
-8.28308
-8.22498
-8.16206
-8.09442
-8.0221
-7.94522
-7.86381
-7.778
-7.68786
-7.59346
-7.49485
-7.392
-7.28492
-7.17352
-7.05777
-6.93753
-6.81279
-6.6834
-6.54934
-6.41042
-6.2666
-6.11765
-5.96347
-5.80386
-5.63877
-5.46802
-5.29156
-5.10916
-4.92077
-4.72621
-4.52552
-4.31862
-4.10562
-3.88651
-3.66146
-3.43057
-3.19407
-2.95218
-2.70521
-2.45349
-2.19737
-1.93729
-1.67367
-1.40699
-1.13773
-0.866387
-0.593424
-0.319315
-0.0445743
0.230309
0.504829
0.778524
1.05096
1.32173
1.59048
1.85685
2.12057
2.38139
2.63912
2.89356
3.14464
3.39227
3.63648
3.87731
4.11481
4.34894
4.57972
4.80725
5.03169
5.25317
5.47185
5.68789
5.90148
6.1127
6.32159
6.5282
6.73256
6.93472
7.1347
7.3325
7.52806
7.72125
7.91185
8.09962
8.28431
8.46529
8.64294
8.81257
8.98972
9.10474
-7.36478
-7.36906
-7.37576
-7.38349
-7.39138
-7.39908
-7.40659
-7.41393
-7.42108
-7.42796
-7.43441
-7.44026
-7.44537
-7.44961
-7.45292
-7.45525
-7.45653
-7.45675
-7.4559
-7.45399
-7.45106
-7.44719
-7.44247
-7.43701
-7.43094
-7.42436
-7.41739
-7.41015
-7.40287
-7.39586
-7.3895
-7.38413
-7.38022
-7.37831
-7.37889
-7.3824
-7.38911
-7.3992
-7.41268
-7.42945
-7.44931
-7.47206
-7.49744
-7.5252
-7.5551
-7.58689
-7.62034
-7.65519
-7.69122
-7.72819
-7.76589
-7.80414
-7.84277
-7.88161
-7.92052
-7.95937
-7.99802
-8.0364
-8.07441
-8.112
-8.1491
-8.18565
-8.22159
-8.25685
-8.29136
-8.325
-8.35768
-8.38924
-8.41954
-8.44838
-8.47556
-8.50084
-8.52397
-8.5447
-8.56273
-8.57776
-8.58948
-8.5976
-8.6019
-8.60217
-8.5982
-8.58976
-8.57665
-8.55868
-8.53569
-8.5076
-8.47429
-8.43574
-8.39196
-8.34299
-8.28896
-8.23001
-8.1663
-8.0979
-8.02492
-7.94741
-7.86549
-7.77925
-7.6888
-7.59422
-7.49554
-7.39275
-7.2858
-7.17466
-7.05922
-6.9394
-6.81512
-6.68629
-6.55284
-6.41462
-6.2715
-6.12331
-5.96989
-5.81109
-5.64678
-5.47683
-5.30108
-5.11934
-4.93149
-4.73743
-4.53715
-4.33058
-4.11781
-3.89886
-3.67386
-3.44292
-3.20627
-2.96414
-2.71685
-2.46471
-2.20812
-1.94749
-1.68327
-1.41593
-1.14598
-0.873899
-0.60018
-0.325329
-0.0498627
0.225704
0.500839
0.775074
1.04798
1.31914
1.58818
1.85476
2.1186
2.37945
2.6371
2.89139
3.14221
3.3895
3.6333
3.8737
4.11076
4.34438
4.57455
4.80143
5.0252
5.24602
5.46405
5.67948
5.8925
6.10323
6.31165
6.5178
6.72174
6.92354
7.12322
7.32078
7.51617
7.70923
7.8997
8.08731
8.27181
8.4525
8.62977
8.79872
8.97562
9.08777
-7.34127
-7.34532
-7.35272
-7.36164
-7.37039
-7.37855
-7.38637
-7.39406
-7.40172
-7.40925
-7.4164
-7.42294
-7.42867
-7.4335
-7.43739
-7.4403
-7.44219
-7.44303
-7.44281
-7.44151
-7.43918
-7.43584
-7.43156
-7.42641
-7.42049
-7.41389
-7.40678
-7.39939
-7.39201
-7.38495
-7.37858
-7.37337
-7.36981
-7.36843
-7.36967
-7.37392
-7.38139
-7.39224
-7.40642
-7.42387
-7.4444
-7.46782
-7.49388
-7.52239
-7.55307
-7.58571
-7.62004
-7.6558
-7.69271
-7.73053
-7.76903
-7.808
-7.84725
-7.88662
-7.92594
-7.96508
-8.00394
-8.04243
-8.08048
-8.11803
-8.15504
-8.19146
-8.22727
-8.26243
-8.29688
-8.33051
-8.36323
-8.39491
-8.42537
-8.45441
-8.48179
-8.50727
-8.53065
-8.55166
-8.57
-8.58531
-8.59723
-8.60545
-8.6098
-8.61012
-8.6062
-8.59775
-8.58453
-8.5663
-8.54292
-8.51429
-8.48035
-8.44103
-8.39639
-8.34651
-8.29153
-8.23171
-8.16718
-8.09805
-8.02439
-7.94626
-7.86382
-7.77714
-7.68639
-7.59162
-7.49288
-7.39015
-7.28338
-7.17251
-7.05743
-6.93807
-6.81427
-6.68604
-6.55321
-6.4157
-6.27329
-6.12586
-5.97319
-5.81521
-5.6517
-5.48255
-5.30749
-5.12643
-4.93912
-4.74562
-4.54576
-4.33961
-4.1271
-3.90836
-3.68342
-3.45247
-3.2157
-2.97336
-2.72577
-2.47324
-2.21619
-1.95504
-1.69023
-1.42224
-1.15159
-0.878789
-0.60433
-0.328761
-0.0525859
0.223643
0.49937
0.77411
1.04744
1.31893
1.58822
1.85497
2.11887
2.37969
2.63722
2.89131
3.14185
3.3888
3.63219
3.87214
4.10871
4.34176
4.57126
4.79744
5.02051
5.24065
5.45802
5.67284
5.88535
6.0956
6.30354
6.50923
6.71275
6.91419
7.11359
7.31093
7.50619
7.69916
7.88951
8.07697
8.26128
8.44169
8.61863
8.78696
8.96358
9.07354
-7.311
-7.31517
-7.32386
-7.33432
-7.34399
-7.35263
-7.36096
-7.36929
-7.37756
-7.38582
-7.39394
-7.40152
-7.40817
-7.41372
-7.41828
-7.42191
-7.42457
-7.42617
-7.42666
-7.42602
-7.42423
-7.4213
-7.41726
-7.41216
-7.40612
-7.39927
-7.39185
-7.38408
-7.37629
-7.36888
-7.36232
-7.35709
-7.35371
-7.35266
-7.35436
-7.35913
-7.36718
-7.37861
-7.3934
-7.41148
-7.4327
-7.45689
-7.4838
-7.51321
-7.54488
-7.57854
-7.61393
-7.65074
-7.68871
-7.72754
-7.76699
-7.80684
-7.84686
-7.88686
-7.92669
-7.96621
-8.00534
-8.04399
-8.08212
-8.11968
-8.15665
-8.19301
-8.22874
-8.26382
-8.2982
-8.33182
-8.36455
-8.39627
-8.4268
-8.45591
-8.48334
-8.50885
-8.53228
-8.55343
-8.57195
-8.5874
-8.59931
-8.60745
-8.61176
-8.61219
-8.60843
-8.60013
-8.5869
-8.56848
-8.5447
-8.51557
-8.481
-8.44098
-8.3956
-8.34481
-8.28894
-8.22824
-8.16289
-8.09299
-8.01861
-7.93985
-7.85682
-7.76967
-7.67854
-7.58355
-7.48473
-7.38204
-7.27546
-7.16486
-7.05016
-6.93126
-6.80807
-6.68046
-6.54831
-6.41146
-6.26976
-6.12305
-5.97117
-5.81396
-5.65125
-5.48284
-5.3085
-5.12808
-4.94142
-4.74849
-4.54916
-4.34345
-4.1313
-3.91277
-3.68794
-3.45699
-3.2201
-2.97756
-2.72967
-2.47678
-2.2193
-1.95764
-1.69226
-1.42367
-1.1524
-0.878968
-0.603912
-0.32779
-0.0511433
0.225496
0.501612
0.776703
1.0503
1.32199
1.59138
1.85813
2.12194
2.38258
2.63983
2.89356
3.14372
3.39023
3.63311
3.87246
4.10836
4.34067
4.56938
4.79481
5.01715
5.23658
5.45329
5.66755
5.87963
6.08949
6.29696
6.50216
6.70526
6.90636
7.10549
7.30264
7.49782
7.69076
7.88101
8.06831
8.25243
8.4326
8.60922
8.77699
8.95325
9.06168
-7.27647
-7.28135
-7.29182
-7.30415
-7.31481
-7.32369
-7.33216
-7.34107
-7.35038
-7.35977
-7.36899
-7.37776
-7.38552
-7.39197
-7.39734
-7.40184
-7.40539
-7.40784
-7.40912
-7.40912
-7.40779
-7.40511
-7.40112
-7.39585
-7.38946
-7.38208
-7.37398
-7.36549
-7.35701
-7.349
-7.34197
-7.33645
-7.33293
-7.33189
-7.3337
-7.33867
-7.34698
-7.35876
-7.37399
-7.39262
-7.41451
-7.4395
-7.46734
-7.4978
-7.53061
-7.56547
-7.60208
-7.6401
-7.67924
-7.71919
-7.75969
-7.80046
-7.84127
-7.88193
-7.92227
-7.96216
-8.00151
-8.04024
-8.07831
-8.11571
-8.15242
-8.18848
-8.22388
-8.25861
-8.29266
-8.32598
-8.35846
-8.38998
-8.42032
-8.44922
-8.47633
-8.50144
-8.52453
-8.54553
-8.56401
-8.57927
-8.59086
-8.59859
-8.60281
-8.60354
-8.60027
-8.5924
-8.57946
-8.56121
-8.53759
-8.50862
-8.47419
-8.4343
-8.38883
-8.33786
-8.2815
-8.22011
-8.15393
-8.08315
-8.00787
-7.92827
-7.84443
-7.7566
-7.6649
-7.5695
-7.47039
-7.36757
-7.26096
-7.15046
-7.03599
-6.91742
-6.7947
-6.66761
-6.53604
-6.39975
-6.25867
-6.11259
-5.96141
-5.80489
-5.64291
-5.47515
-5.30151
-5.12171
-4.93573
-4.74334
-4.54459
-4.33931
-4.12756
-3.90928
-3.68462
-3.45369
-3.21676
-2.97406
-2.72592
-2.47271
-2.21483
-1.95269
-1.6868
-1.41767
-1.14585
-0.871855
-0.596277
-0.319676
-0.0426334
0.234335
0.510754
0.786112
1.0599
1.33169
1.60108
1.86773
2.13134
2.39166
2.64849
2.90166
3.15109
3.3967
3.63852
3.87661
4.11108
4.34207
4.56974
4.79422
5.01567
5.23425
5.45015
5.66368
5.8752
6.08458
6.29151
6.49619
6.69887
6.89964
7.09853
7.29553
7.49071
7.68374
7.87398
8.06116
8.24513
8.42507
8.60141
8.76867
8.94454
9.05206
-7.23979
-7.24567
-7.25836
-7.27247
-7.28329
-7.29215
-7.30127
-7.31111
-7.32134
-7.33175
-7.34218
-7.35229
-7.36138
-7.36908
-7.37565
-7.38135
-7.38607
-7.38962
-7.39182
-7.39255
-7.39171
-7.38924
-7.38515
-7.37949
-7.37244
-7.36417
-7.35506
-7.34543
-7.33581
-7.32667
-7.31862
-7.31216
-7.30784
-7.30611
-7.30738
-7.31198
-7.32006
-7.3318
-7.34717
-7.36617
-7.38862
-7.4144
-7.44324
-7.47491
-7.50904
-7.54532
-7.58334
-7.62276
-7.66322
-7.70439
-7.74597
-7.78765
-7.82921
-7.87039
-7.91108
-7.95108
-7.99037
-8.02883
-8.06649
-8.10331
-8.13938
-8.17471
-8.20937
-8.24337
-8.27671
-8.30938
-8.34133
-8.37239
-8.40231
-8.4306
-8.45672
-8.48046
-8.50232
-8.52286
-8.54162
-8.55771
-8.57043
-8.57948
-8.58498
-8.5866
-8.58403
-8.57662
-8.56402
-8.5459
-8.52241
-8.49348
-8.45919
-8.41936
-8.3739
-8.32275
-8.26604
-8.20404
-8.13712
-8.06547
-7.98931
-7.90883
-7.82423
-7.73571
-7.64349
-7.54768
-7.4483
-7.34532
-7.23867
-7.12827
-7.01399
-6.89575
-6.77341
-6.64683
-6.5158
-6.38015
-6.23971
-6.09434
-5.94387
-5.78811