/*--------------------------------*- C++ -*----------------------------------*\
  =========                 |
  \\      /  F ield         | OpenFOAM: The Open Source CFD Toolbox
   \\    /   O peration     | Website:  https://openfoam.org
    \\  /    A nd           | Version:  13
     \\/     M anipulation  |
\*---------------------------------------------------------------------------*/
FoamFile
{
    format      ascii;
    class       surfaceScalarField;
    location    "500";
    object      phi;
}
// * * * * * * * * * * * * * * * * * * * * * * * * * * * * * * * * * * * * * //

dimensions      [0 3 -1 0 0 0 0];

internalField   nonuniform List<scalar> 
24170
(
3.05558e-06
1.32909e-07
2.91282e-06
1.42771e-07
2.78375e-06
1.29179e-07
2.66834e-06
1.1517e-07
2.56902e-06
9.94795e-08
2.48415e-06
8.47533e-08
2.41246e-06
7.18271e-08
2.35174e-06
6.07756e-08
2.29852e-06
5.33432e-08
2.25308e-06
4.5599e-08
2.21397e-06
3.92252e-08
2.18097e-06
3.31275e-08
2.1552e-06
2.58308e-08
2.13475e-06
2.0493e-08
2.11732e-06
1.74353e-08
2.10332e-06
1.40071e-08
2.09416e-06
9.12444e-09
2.33833e-09
2.09176e-06
3.47931e-06
7.0903e-08
3.51625e-06
1.06205e-07
3.53713e-06
1.08648e-07
3.54245e-06
1.0982e-07
3.53321e-06
1.08901e-07
3.5096e-06
1.08185e-07
3.47812e-06
1.03267e-07
3.4438e-06
9.49038e-08
3.40787e-06
8.91156e-08
3.37172e-06
8.15695e-08
3.3368e-06
7.40002e-08
3.30392e-06
6.5906e-08
3.2736e-06
5.60805e-08
3.24716e-06
4.69226e-08
3.22384e-06
4.07696e-08
3.20177e-06
3.61162e-08
3.17997e-06
3.09593e-08
2.33029e-08
3.15909e-06
3.68096e-06
5.2503e-08
3.69772e-06
8.93608e-08
3.7126e-06
9.3699e-08
3.72758e-06
9.46397e-08
3.741e-06
9.55297e-08
3.7528e-06
9.63405e-08
3.76183e-06
9.43e-08
3.76722e-06
8.95808e-08
3.77073e-06
8.56862e-08
3.77201e-06
8.0388e-08
3.77148e-06
7.46082e-08
3.76938e-06
6.80968e-08
3.76529e-06
6.02356e-08
3.7597e-06
5.25572e-08
3.75384e-06
4.66509e-08
3.74829e-06
4.16657e-08
3.74295e-06
3.62572e-08
2.82606e-08
3.73793e-06
3.9357e-06
4.2224e-08
3.94622e-06
7.90463e-08
3.95369e-06
8.64537e-08
3.96037e-06
8.80128e-08
3.96669e-06
8.93009e-08
3.97345e-06
8.94489e-08
3.98029e-06
8.73349e-08
3.9864e-06
8.32633e-08
3.99259e-06
7.92854e-08
3.9985e-06
7.42747e-08
4.0041e-06
6.88375e-08
4.00928e-06
6.27957e-08
4.01358e-06
5.58659e-08
4.01693e-06
4.91878e-08
4.0199e-06
4.36831e-08
4.02285e-06
3.87132e-08
4.02567e-06
3.34312e-08
2.65539e-08
4.0274e-06
4.21507e-06
3.42848e-08
4.22424e-06
6.97883e-08
4.23093e-06
7.96459e-08
4.2365e-06
8.23099e-08
4.24168e-06
8.41094e-08
4.24677e-06
8.4351e-08
4.25175e-06
8.23985e-08
4.2563e-06
7.87782e-08
4.26088e-06
7.47712e-08
4.26529e-06
6.99371e-08
4.26951e-06
6.46794e-08
4.27347e-06
5.88946e-08
4.27686e-06
5.2532e-08
4.27967e-06
4.64045e-08
4.28232e-06
4.10402e-08
4.28502e-06
3.60116e-08
4.28759e-06
3.08306e-08
2.47551e-08
4.28932e-06
4.51535e-06
2.80323e-08
4.52383e-06
6.14547e-08
4.53045e-06
7.31411e-08
4.53598e-06
7.68359e-08
4.54127e-06
7.88528e-08
4.54638e-06
7.91838e-08
4.55125e-06
7.74394e-08
4.55575e-06
7.41576e-08
4.56014e-06
7.02613e-08
4.56431e-06
6.56615e-08
4.56825e-06
6.0655e-08
4.57188e-06
5.52002e-08
4.57498e-06
4.93866e-08
4.57761e-06
4.37573e-08
4.58003e-06
3.86057e-08
4.58235e-06
3.36712e-08
4.58443e-06
2.87257e-08
2.33459e-08
4.58585e-06
4.83763e-06
2.31265e-08
4.84564e-06
5.33567e-08
4.8524e-06
6.62774e-08
4.85806e-06
7.10889e-08
4.86344e-06
7.34518e-08
4.86868e-06
7.39579e-08
4.87368e-06
7.24818e-08
4.87833e-06
6.95579e-08
4.88279e-06
6.58595e-08
4.88699e-06
6.15265e-08
4.89091e-06
5.67847e-08
4.8945e-06
5.16568e-08
4.89761e-06
4.63e-08
4.90031e-06
4.10782e-08
4.90275e-06
3.61688e-08
4.90498e-06
3.14367e-08
4.90689e-06
2.67968e-08
2.19437e-08
4.90822e-06
5.18341e-06
1.92926e-08
5.19094e-06
4.59152e-08
5.19774e-06
5.95334e-08
5.20361e-06
6.52481e-08
5.20914e-06
6.79333e-08
5.2145e-06
6.85773e-08
5.21961e-06
6.73331e-08
5.22442e-06
6.4702e-08
5.22899e-06
6.1245e-08
5.23327e-06
5.72063e-08
5.23726e-06
5.27768e-08
5.24088e-06
4.80171e-08
5.24406e-06
4.30939e-08
5.24686e-06
3.82654e-08
5.24937e-06
3.36464e-08
5.2516e-06
2.91893e-08
5.25348e-06
2.48761e-08
2.05804e-08
5.25483e-06
5.55446e-06
1.61753e-08
5.56124e-06
3.90527e-08
5.56792e-06
5.27692e-08
5.57397e-06
5.91485e-08
5.57971e-06
6.21755e-08
5.58524e-06
6.30581e-08
5.5905e-06
6.21037e-08
5.59546e-06
5.97834e-08
5.60015e-06
5.65967e-08
5.60455e-06
5.28469e-08
5.60864e-06
4.87227e-08
5.61237e-06
4.43177e-08
5.61569e-06
3.97912e-08
5.61863e-06
3.53289e-08
5.62124e-06
3.10281e-08
5.62353e-06
2.68849e-08
5.62547e-06
2.2937e-08
1.90796e-08
5.6269e-06
5.9524e-06
1.35455e-08
5.95833e-06
3.31699e-08
5.96477e-06
4.63502e-08
5.97092e-06
5.30167e-08
5.97686e-06
5.62288e-08
5.98261e-06
5.72974e-08
5.98808e-06
5.66067e-08
5.99324e-06
5.45969e-08
5.99808e-06
5.17184e-08
6.00262e-06
4.82822e-08
6.00684e-06
4.44879e-08
6.01069e-06
4.04495e-08
6.01416e-06
3.63149e-08
6.01725e-06
3.2227e-08
6.02e-06
2.8272e-08
6.0224e-06
2.44772e-08
6.02442e-06
2.08815e-08
1.74761e-08
6.02601e-06
6.37903e-06
1.13305e-08
6.38418e-06
2.7958e-08
6.39029e-06
4.01824e-08
6.39643e-06
4.68439e-08
6.40249e-06
5.01448e-08
6.40842e-06
5.13694e-08
6.4141e-06
5.09307e-08
6.41947e-06
4.92315e-08
6.42452e-06
4.66772e-08
6.42923e-06
4.35763e-08
6.4336e-06
4.01202e-08
6.43761e-06
3.64506e-08
6.44123e-06
3.26919e-08
6.44448e-06
2.89818e-08
6.44737e-06
2.53795e-08
6.44989e-06
2.19426e-08
6.45206e-06
1.87175e-08
1.56825e-08
6.45382e-06
5.74245e-06
9.69406e-09
5.74632e-06
2.40738e-08
5.75122e-06
3.5269e-08
5.75633e-06
4.17166e-08
5.76148e-06
4.49884e-08
5.76656e-06
4.62897e-08
5.77147e-06
4.6022e-08
5.77614e-06
4.45648e-08
5.78054e-06
4.22889e-08
5.78465e-06
3.94741e-08
5.78846e-06
3.63187e-08
5.79196e-06
3.29524e-08
5.79515e-06
2.95277e-08
5.79801e-06
2.61118e-08
5.80057e-06
2.28256e-08
5.80283e-06
1.96785e-08
5.80478e-06
1.67463e-08
1.40223e-08
5.80642e-06
6.99975e-06
8.09781e-09
7.0037e-06
2.00826e-08
7.00894e-06
2.99845e-08
7.01463e-06
3.59969e-08
7.02048e-06
3.91155e-08
7.02634e-06
4.04224e-08
7.03206e-06
4.02963e-08
7.03754e-06
3.90794e-08
7.04273e-06
3.70955e-08
7.0476e-06
3.4609e-08
7.05212e-06
3.1796e-08
7.05628e-06
2.88059e-08
7.06007e-06
2.57297e-08
7.0635e-06
2.27004e-08
7.06657e-06
1.97474e-08
7.06929e-06
1.69605e-08
7.07165e-06
1.43537e-08
1.19657e-08
7.0737e-06
8.53241e-06
6.51276e-09
8.53637e-06
1.6075e-08
8.5419e-06
2.44163e-08
8.54813e-06
2.97366e-08
8.55467e-06
3.25634e-08
8.56131e-06
3.37772e-08
8.56786e-06
3.37468e-08
8.5742e-06
3.27466e-08
8.58024e-06
3.10665e-08
8.58592e-06
2.89315e-08
8.59122e-06
2.64989e-08
8.59611e-06
2.39118e-08
8.60059e-06
2.12598e-08
8.60465e-06
1.86335e-08
8.60831e-06
1.6093e-08
8.61157e-06
1.36896e-08
8.61445e-06
1.14602e-08
9.41823e-09
8.61697e-06
1.04008e-05
4.94941e-09
1.04047e-05
1.20991e-08
1.04105e-05
1.8606e-08
1.04172e-05
2.29873e-08
1.04244e-05
2.53274e-08
1.04319e-05
2.63601e-08
1.04393e-05
2.63487e-08
1.04465e-05
2.55446e-08
1.04534e-05
2.41651e-08
1.04599e-05
2.23852e-08
1.04661e-05
2.03811e-08
1.04717e-05
1.82214e-08
1.0477e-05
1.60387e-08
1.04817e-05
1.38578e-08
1.04861e-05
1.17756e-08
1.049e-05
9.79391e-09
1.04934e-05
7.97762e-09
6.31074e-09
1.04965e-05
1.26783e-05
3.39344e-09
1.26823e-05
8.10207e-09
1.26883e-05
1.25808e-08
1.26955e-05
1.5731e-08
1.27035e-05
1.74186e-08
1.27117e-05
1.81266e-08
1.272e-05
1.80674e-08
1.27281e-05
1.74105e-08
1.2736e-05
1.63111e-08
1.27435e-05
1.49244e-08
1.27505e-05
1.33401e-08
1.2757e-05
1.16768e-08
1.27631e-05
9.9693e-09
1.27686e-05
8.30477e-09
1.27737e-05
6.69142e-09
1.27783e-05
5.19031e-09
1.27825e-05
3.79378e-09
2.53836e-09
1.27863e-05
1.54548e-05
1.81055e-09
1.54589e-05
3.98833e-09
1.54652e-05
6.23627e-09
1.5473e-05
7.9134e-09
1.54817e-05
8.73266e-09
1.54908e-05
8.98829e-09
1.55001e-05
8.78786e-09
1.55093e-05
8.22799e-09
1.55182e-05
7.40289e-09
1.55267e-05
6.39731e-09
1.55347e-05
5.2852e-09
1.55423e-05
4.12255e-09
1.55493e-05
2.95368e-09
1.55558e-05
1.81408e-09
1.55617e-05
7.28675e-10
1.55672e-05
-2.8075e-10
1.55722e-05
-1.20617e-09
-2.03604e-09
1.55768e-05
1.88393e-05
1.25455e-10
1.88438e-05
-4.94679e-10
1.88507e-05
-7.17159e-10
1.88594e-05
-7.66749e-10
1.88691e-05
-1.0067e-09
1.88795e-05
-1.33059e-09
1.889e-05
-1.7473e-09
1.89004e-05
-2.24485e-09
1.89106e-05
-2.80274e-09
1.89204e-05
-3.40093e-09
1.89297e-05
-4.01659e-09
1.89384e-05
-4.6322e-09
1.89466e-05
-5.22891e-09
1.89542e-05
-5.79484e-09
1.89612e-05
-6.31708e-09
1.89677e-05
-6.7885e-09
1.89738e-05
-7.20586e-09
-7.56312e-09
1.89793e-05
2.29653e-05
-1.86447e-09
2.29707e-05
-5.88873e-09
2.2979e-05
-8.99455e-09
2.29893e-05
-1.10609e-08
2.30008e-05
-1.25205e-08
2.3013e-05
-1.3506e-08
2.30254e-05
-1.41582e-08
2.30377e-05
-1.45704e-08
2.30497e-05
-1.48115e-08
2.30612e-05
-1.49341e-08
2.30721e-05
-1.49809e-08
2.30824e-05
-1.49692e-08
2.30921e-05
-1.49199e-08
2.31012e-05
-1.48346e-08
2.31096e-05
-1.47259e-08
2.31174e-05
-1.45894e-08
2.31246e-05
-1.44371e-08
-1.42578e-08
2.31313e-05
1.68124e-05
-3.54897e-09
1.68169e-05
-1.04074e-08
1.68236e-05
-1.57425e-08
1.68318e-05
-1.92023e-08
1.68407e-05
-2.14503e-08
1.685e-05
-2.28059e-08
1.68593e-05
-2.35389e-08
1.68686e-05
-2.38001e-08
1.68775e-05
-2.37322e-08
1.6886e-05
-2.34569e-08
1.6894e-05
-2.30394e-08
1.69016e-05
-2.25491e-08
1.69087e-05
-2.20013e-08
1.69153e-05
-2.14415e-08
1.69214e-05
-2.0862e-08
1.69271e-05
-2.02934e-08
1.69324e-05
-1.97212e-08
-1.91633e-08
1.69373e-05
1.46364e-05
-5.3483e-09
1.46411e-05
-1.52256e-08
1.4648e-05
-2.26106e-08
1.4656e-05
-2.72047e-08
1.46645e-05
-2.99871e-08
1.46733e-05
-3.15632e-08
1.46819e-05
-3.22344e-08
1.46904e-05
-3.22458e-08
1.46984e-05
-3.18145e-08
1.47061e-05
-3.11031e-08
1.47132e-05
-3.02301e-08
1.472e-05
-2.926e-08
1.47262e-05
-2.82536e-08
1.4732e-05
-2.72387e-08
1.47373e-05
-2.62449e-08
1.47423e-05
-2.52754e-08
1.4747e-05
-2.43479e-08
-2.34449e-08
1.47513e-05
1.27422e-05
-7.41322e-09
1.27476e-05
-2.05968e-08
1.27548e-05
-2.98772e-08
1.27628e-05
-3.52248e-08
1.27711e-05
-3.83214e-08
1.27795e-05
-3.99348e-08
1.27877e-05
-4.04275e-08
1.27955e-05
-4.009e-08
1.28029e-05
-3.9226e-08
1.28098e-05
-3.80547e-08
1.28163e-05
-3.67035e-08
1.28223e-05
-3.5266e-08
1.28278e-05
-3.3811e-08
1.2833e-05
-3.23742e-08
1.28377e-05
-3.09895e-08
1.28421e-05
-2.96612e-08
1.28461e-05
-2.84073e-08
-2.72101e-08
1.28499e-05
1.10934e-05
-9.92747e-09
1.10996e-05
-2.68025e-08
1.11074e-05
-3.75837e-08
1.11154e-05
-4.33126e-08
1.11236e-05
-4.65005e-08
1.11317e-05
-4.80319e-08
1.11394e-05
-4.8191e-08
1.11468e-05
-4.74133e-08
1.11536e-05
-4.60734e-08
1.11599e-05
-4.44091e-08
1.11658e-05
-4.2575e-08
1.11712e-05
-4.06738e-08
1.11762e-05
-3.87772e-08
1.11807e-05
-3.69448e-08
1.11849e-05
-3.51929e-08
1.11888e-05
-3.35409e-08
1.11924e-05
-3.19852e-08
-3.05169e-08
1.11957e-05
9.65841e-06
-1.31307e-08
9.66566e-06
-3.40327e-08
9.67382e-06
-4.57416e-08
9.68195e-06
-5.14189e-08
9.69001e-06
-5.45618e-08
9.69784e-06
-5.58383e-08
9.70521e-06
-5.5574e-08
9.71207e-06
-5.4287e-08
9.71843e-06
-5.24334e-08
9.72428e-06
-5.0268e-08
9.72964e-06
-4.79389e-08
9.73453e-06
-4.55709e-08
9.739e-06
-4.32496e-08
9.74308e-06
-4.10276e-08
9.74682e-06
-3.89372e-08
9.75027e-06
-3.699e-08
9.75346e-06
-3.51761e-08
-3.34759e-08
9.75641e-06
8.40952e-06
-1.72857e-08
8.41806e-06
-4.25874e-08
8.42656e-06
-5.42153e-08
8.43469e-06
-5.95597e-08
8.44268e-06
-6.25537e-08
8.45031e-06
-6.349e-08
8.4574e-06
-6.26627e-08
8.46392e-06
-6.08096e-08
8.4699e-06
-5.84142e-08
8.47535e-06
-5.57186e-08
8.4803e-06
-5.28983e-08
8.48479e-06
-5.00692e-08
8.48887e-06
-4.73291e-08
8.49257e-06
-4.47304e-08
8.49593e-06
-4.23065e-08
8.49902e-06
-4.00727e-08
8.50186e-06
-3.80256e-08
-3.61137e-08
8.5045e-06
7.3228e-06
-2.28068e-08
7.33284e-06
-5.2592e-08
7.34173e-06
-6.31036e-08
7.35007e-06
-6.78965e-08
7.35819e-06
-7.06701e-08
7.36582e-06
-7.11071e-08
7.37283e-06
-6.96789e-08
7.37923e-06
-6.72161e-08
7.38505e-06
-6.42383e-08
7.39033e-06
-6.09997e-08
7.39508e-06
-5.76553e-08
7.39934e-06
-5.43371e-08
7.40317e-06
-5.11599e-08
7.40662e-06
-4.81867e-08
7.40974e-06
-4.54264e-08
7.41256e-06
-4.28914e-08
7.41512e-06
-4.05937e-08
-3.84821e-08
7.41748e-06
6.37813e-06
-3.08523e-08
6.38985e-06
-6.43178e-08
6.39992e-06
-7.31684e-08
6.40944e-06
-7.74299e-08
6.41854e-06
-7.97793e-08
6.4269e-06
-7.94766e-08
6.43447e-06
-7.72581e-08
6.44132e-06
-7.40635e-08
6.44746e-06
-7.03846e-08
6.45294e-06
-6.64729e-08
6.45777e-06
-6.24905e-08
6.462e-06
-5.85757e-08
6.46566e-06
-5.4829e-08
6.46884e-06
-5.1362e-08
6.4716e-06
-4.81921e-08
6.47399e-06
-4.52813e-08
6.47605e-06
-4.2658e-08
-4.0282e-08
6.47783e-06
5.56077e-06
-4.6149e-08
5.57732e-06
-8.08584e-08
5.59228e-06
-8.81394e-08
5.60647e-06
-9.162e-08
5.61924e-06
-9.25595e-08
5.63032e-06
-9.05489e-08
5.63973e-06
-8.66682e-08
5.64756e-06
-8.18886e-08
5.65387e-06
-7.66926e-08
5.65876e-06
-7.13608e-08
5.66233e-06
-6.60631e-08
5.6647e-06
-6.0956e-08
5.666e-06
-5.61249e-08
5.66635e-06
-5.17194e-08
5.66594e-06
-4.77778e-08
5.66489e-06
-4.42308e-08
5.66337e-06
-4.1151e-08
-3.86737e-08
5.66176e-06
4.88151e-06
-1.00034e-07
4.91931e-06
-1.1865e-07
4.94492e-06
-1.13759e-07
4.96058e-06
-1.07286e-07
4.96773e-06
-9.9708e-08
4.96801e-06
-9.08228e-08
4.96291e-06
-8.15629e-08
4.95363e-06
-7.26057e-08
4.94119e-06
-6.42541e-08
4.92641e-06
-5.65744e-08
4.90991e-06
-4.9561e-08
4.8922e-06
-4.32511e-08
4.87371e-06
-3.76305e-08
4.85474e-06
-3.27534e-08
4.83573e-06
-2.87646e-08
4.81709e-06
-2.5594e-08
4.79902e-06
-2.30868e-08
-2.15433e-08
4.78188e-06
4.10264e-06
3.98399e-06
3.87023e-06
3.76295e-06
3.66324e-06
3.57242e-06
3.49085e-06
3.41825e-06
3.35399e-06
3.29742e-06
3.24786e-06
3.20461e-06
3.16698e-06
3.13422e-06
3.10546e-06
3.07986e-06
3.05678e-06
3.03523e-06
-7.63331e-09
7.67156e-09
-2.06969e-08
1.31177e-08
-3.51215e-08
1.45025e-08
-4.76817e-08
1.25917e-08
-5.34479e-08
5.85751e-09
-4.68258e-08
-6.63099e-09
-2.51946e-08
-2.15184e-08
9.23269e-09
-3.44434e-08
5.27905e-08
-4.34535e-08
1.00614e-07
-4.78339e-08
1.48554e-07
-4.78639e-08
1.93402e-07
-4.485e-08
2.33275e-07
-3.98188e-08
2.66819e-07
-3.35444e-08
2.93403e-07
-2.65471e-08
3.12538e-07
-1.91348e-08
3.24006e-07
-1.14502e-08
3.27489e-07
-3.47744e-09
3.22762e-07
4.73434e-09
3.09875e-07
1.29011e-08
2.89241e-07
2.06314e-08
2.61702e-07
2.75624e-08
2.28374e-07
3.33188e-08
1.90916e-07
3.74807e-08
1.51307e-07
3.95954e-08
1.12023e-07
3.92982e-08
7.55724e-08
3.64286e-08
4.43511e-08
3.12321e-08
1.98463e-08
2.44755e-08
2.51535e-09
1.73371e-08
-8.41172e-09
1.08885e-08
-1.37705e-08
5.35988e-09
-1.37827e-08
-3.07291e-11
-7.59828e-09
-6.16733e-09
5.99555e-09
-1.36495e-08
2.82834e-08
-2.22893e-08
5.82366e-08
-2.99827e-08
9.13396e-08
-3.31702e-08
1.21861e-07
-3.05404e-08
1.4496e-07
-2.32181e-08
1.58377e-07
-1.34491e-08
1.6257e-07
-4.30968e-09
1.60865e-07
1.65674e-09
1.56987e-07
3.81797e-09
1.54327e-07
2.64659e-09
1.53892e-07
4.3133e-10
1.49601e-07
4.36647e-09
1.32611e-07
1.69212e-08
9.50944e-08
3.76417e-08
3.0139e-08
6.46985e-08
-5.93873e-08
8.95616e-08
-1.67759e-07
1.08097e-07
-2.90652e-07
1.22879e-07
-4.25113e-07
1.34312e-07
-5.67356e-07
1.42236e-07
-7.13224e-07
1.45817e-07
-8.58412e-07
1.45176e-07
-9.99904e-07
1.41478e-07
-1.13493e-06
1.34997e-07
-1.26152e-06
1.26582e-07
-1.37929e-06
1.17734e-07
-1.48844e-06
1.09152e-07
-1.58845e-06
9.99616e-08
-1.6794e-06
9.09477e-08
-1.76284e-06
8.33975e-08
-1.83949e-06
7.66474e-08
-1.91007e-06
7.0549e-08
-1.97527e-06
6.51977e-08
-2.03578e-06
6.04855e-08
-2.09214e-06
5.63664e-08
-2.14489e-06
5.27405e-08
-2.19444e-06
4.95428e-08
-2.24112e-06
4.66927e-08
-2.28526e-06
4.41289e-08
-2.32705e-06
4.18001e-08
-2.36673e-06
3.96558e-08
-2.40439e-06
3.7665e-08
-2.44021e-06
3.57898e-08
-2.47422e-06
3.40169e-08
-2.50656e-06
3.23148e-08
-2.53725e-06
3.068e-08
-2.56636e-06
2.90904e-08
-2.59391e-06
2.75421e-08
-2.61993e-06
2.60225e-08
-2.64448e-06
2.45234e-08
-2.66752e-06
2.30452e-08
-2.68913e-06
2.15727e-08
-2.70929e-06
2.01192e-08
-2.72807e-06
1.86846e-08
-2.74552e-06
1.72405e-08
-2.76154e-06
1.58277e-08
-2.77616e-06
1.44149e-08
-2.78935e-06
1.3016e-08
-2.80116e-06
1.16139e-08
-2.81154e-06
1.02172e-08
-2.82052e-06
8.81232e-09
-2.82806e-06
7.39974e-09
-2.83415e-06
5.96508e-09
-2.83875e-06
4.49544e-09
-2.84179e-06
2.97663e-09
-2.84323e-06
1.39091e-09
-2.84302e-06
-2.04884e-10
-2.84136e-06
-1.6415e-09
-2.83846e-06
-2.85083e-09
-2.83444e-06
-3.99996e-09
-2.82931e-06
-5.12928e-09
-2.82308e-06
-6.26709e-09
-2.81574e-06
-7.41076e-09
-2.80728e-06
-8.57002e-09
-2.79767e-06
-9.74581e-09
-2.78688e-06
-1.09354e-08
-2.7749e-06
-1.21511e-08
-2.76169e-06
-1.33761e-08
-2.74724e-06
-1.46349e-08
-2.73149e-06
-1.58978e-08
-2.71447e-06
-1.72023e-08
-2.6961e-06
-1.85085e-08
-2.67637e-06
-1.98545e-08
-2.6552e-06
-2.1198e-08
-2.63265e-06
-2.25804e-08
-2.6087e-06
-2.39781e-08
-2.5834e-06
-2.54268e-08
-2.55663e-06
-2.68704e-08
-2.52843e-06
-2.83492e-08
-2.49867e-06
-2.97865e-08
-2.46746e-06
-3.12438e-08
-2.43471e-06
-3.26546e-08
-2.40053e-06
-3.40775e-08
-2.36488e-06
-3.54535e-08
-2.32784e-06
-3.6835e-08
-2.2894e-06
-3.81597e-08
-2.24964e-06
-3.94689e-08
-2.20859e-06
-4.07201e-08
-2.16632e-06
-4.19198e-08
-2.12291e-06
-4.30599e-08
-2.07846e-06
-4.4099e-08
-2.03309e-06
-4.50554e-08
-1.98694e-06
-4.58959e-08
-1.93998e-06
-4.68392e-08
-1.89221e-06
-4.77849e-08
-1.84376e-06
-4.85794e-08
-1.79468e-06
-4.92721e-08
-1.74505e-06
-4.98668e-08
-1.69495e-06
-5.03656e-08
-1.64446e-06
-5.07811e-08
-1.59365e-06
-5.11103e-08
-1.54259e-06
-5.13655e-08
-1.49133e-06
-5.15438e-08
-1.43994e-06
-5.16586e-08
-1.38847e-06
-5.17088e-08
-1.337e-06
-5.1707e-08
-1.28553e-06
-5.16551e-08
-1.23414e-06
-5.15637e-08
-1.18283e-06
-5.14381e-08
-1.13166e-06
-5.12847e-08
-1.0806e-06
-5.11126e-08
-1.02971e-06
-5.09241e-08
-9.78954e-07
-5.07345e-08
-9.28356e-07
-5.0544e-08
-8.77885e-07
-5.03752e-08
-8.27526e-07
-5.02248e-08
-7.77244e-07
-5.01167e-08
-7.26999e-07
-5.00409e-08
-6.7676e-07
-5.00184e-08
-6.26473e-07
-5.00304e-08
-5.76119e-07
-5.00956e-08
-5.25632e-07
-5.0197e-08
-4.74999e-07
-5.03525e-08
-4.24147e-07
-5.05464e-08
-3.73065e-07
-5.07962e-08
-3.21682e-07
-5.10755e-08
-2.70026e-07
-5.13726e-08
-2.18058e-07
-5.16713e-08
-1.65886e-07
-5.19031e-08
-1.13666e-07
-5.1948e-08
-6.18177e-08
-5.16015e-08
-1.09781e-08
-5.06129e-08
3.72183e-08
-4.8033e-08
8.23918e-08
-4.50759e-08
-2.12045e-08
1.03707e-07
-3.24364e-09
1.09935e-08
-8.93157e-09
1.89222e-08
-1.15573e-08
1.73115e-08
-4.69572e-09
5.81377e-09
1.68844e-08
-1.55636e-08
5.26591e-08
-4.23863e-08
9.8765e-08
-6.7542e-08
1.49703e-07
-8.53776e-08
2.0059e-07
-9.42855e-08
2.48041e-07
-9.52814e-08
2.90583e-07
-9.03643e-08
3.27366e-07
-8.1627e-08
3.58282e-07
-7.07037e-08
3.83434e-07
-5.86892e-08
4.03163e-07
-4.62543e-08
4.17799e-07
-3.37656e-08
4.27763e-07
-2.14005e-08
4.33539e-07
-9.24882e-09
4.35569e-07
2.70969e-09
4.33899e-07
1.4579e-08
4.28149e-07
2.63806e-08
4.17775e-07
3.79436e-08
4.02174e-07
4.89163e-08
3.80919e-07
5.87432e-08
3.53815e-07
6.66882e-08
3.21204e-07
7.19108e-08
2.8401e-07
7.36066e-08
2.43976e-07
7.12629e-08
2.03571e-07
6.48587e-08
1.6599e-07
5.49099e-08
1.34634e-07
4.22068e-08
1.12565e-07
2.74311e-08
1.01573e-07
1.09108e-08
1.02195e-07
-6.78818e-09
1.13693e-07
-2.51846e-08
1.33502e-07
-4.21177e-08
1.55836e-07
-5.23441e-08
1.74292e-07
-5.16831e-08
1.84905e-07
-4.11817e-08
1.86463e-07
-2.48727e-08
1.79357e-07
-6.38627e-09
1.65051e-07
9.88755e-09
1.45155e-07
2.15212e-08
1.1429e-07
3.46066e-08
6.25419e-08
5.44187e-08
-1.93379e-08
8.23081e-08
-1.32552e-07
1.17634e-07
-2.69511e-07
1.53867e-07
-4.19687e-07
1.87824e-07
-5.7435e-07
2.1931e-07
-7.30486e-07
2.45673e-07
-8.86902e-07
2.6445e-07
-1.04019e-06
2.76125e-07
-1.18676e-06
2.80835e-07
-1.32323e-06
2.78675e-07
-1.44769e-06
2.70252e-07
-1.55946e-06
2.56919e-07
-1.65844e-06
2.40444e-07
-1.7457e-06
2.22225e-07
-1.82287e-06
2.0374e-07
-1.8913e-06
1.86143e-07
-1.95204e-06
1.69876e-07
-2.00696e-06
1.54858e-07
-2.05723e-06
1.41203e-07
-2.10319e-06
1.29332e-07
-2.14563e-06
1.1908e-07
-2.18527e-06
1.10167e-07
-2.22251e-06
1.02425e-07
-2.25769e-06
9.56628e-08
-2.29106e-06
8.97282e-08
-2.3228e-06
8.44736e-08
-2.35304e-06
7.97758e-08
-2.38187e-06
7.55274e-08
-2.40939e-06
7.1641e-08
-2.43563e-06
6.80425e-08
-2.46065e-06
6.46702e-08
-2.48447e-06
6.14812e-08
-2.50713e-06
5.84324e-08
-2.52861e-06
5.54978e-08
-2.54896e-06
5.26492e-08
-2.56815e-06
4.98716e-08
-2.58622e-06
4.71465e-08
-2.60315e-06
4.44644e-08
-2.61895e-06
4.18137e-08
-2.63362e-06
3.91864e-08
-2.64716e-06
3.65773e-08
-2.65959e-06
3.39805e-08
-2.6709e-06
3.14044e-08
-2.68115e-06
2.88309e-08
-2.69031e-06
2.62835e-08
-2.69838e-06
2.37463e-08
-2.70533e-06
2.1225e-08
-2.71117e-06
1.87271e-08
-2.71592e-06
1.62345e-08
-2.71957e-06
1.37606e-08
-2.72216e-06
1.12883e-08
-2.72367e-06
8.83012e-09
-2.72416e-06
6.37317e-09
-2.72365e-06
3.9346e-09
-2.72223e-06
1.5165e-09
-2.71999e-06
-8.52819e-10
-2.71703e-06
-3.14385e-09
-2.71326e-06
-5.3742e-09
-2.70848e-06
-7.59117e-09
-2.70263e-06
-9.82337e-09
-2.69569e-06
-1.20612e-08
-2.68767e-06
-1.4321e-08
-2.67853e-06
-1.65988e-08
-2.66828e-06
-1.89084e-08
-2.65688e-06
-2.12445e-08
-2.64432e-06
-2.36185e-08
-2.63056e-06
-2.60267e-08
-2.6156e-06
-2.84758e-08
-2.5994e-06
-3.09646e-08
-2.58194e-06
-3.34959e-08
-2.56318e-06
-3.60728e-08
-2.54312e-06
-3.8692e-08
-2.5217e-06
-4.13459e-08
-2.49889e-06
-4.40347e-08
-2.47471e-06
-4.67719e-08
-2.44919e-06
-4.95599e-08
-2.4223e-06
-5.2406e-08
-2.39402e-06
-5.52765e-08
-2.36429e-06
-5.81645e-08
-2.33311e-06
-6.10269e-08
-2.30047e-06
-6.38819e-08
-2.26639e-06
-6.66943e-08
-2.2309e-06
-6.94883e-08
-2.194e-06
-7.22261e-08
-2.15575e-06
-7.4929e-08
-2.11618e-06
-7.75512e-08
-2.07533e-06
-8.01115e-08
-2.03325e-06
-8.257e-08
-1.99e-06
-8.49339e-08
-1.94564e-06
-8.71788e-08
-1.90021e-06
-8.93023e-08
-1.85377e-06
-9.12808e-08
-1.80639e-06
-9.31436e-08
-1.75823e-06
-9.49407e-08
-1.70942e-06
-9.66431e-08
-1.65995e-06
-9.81416e-08
-1.6099e-06
-9.9467e-08
-1.55933e-06
-1.00589e-07
-1.50833e-06
-1.01548e-07
-1.45697e-06
-1.02324e-07
-1.40532e-06
-1.02953e-07
-1.35345e-06
-1.03422e-07
-1.30142e-06
-1.03759e-07
-1.24928e-06
-1.03962e-07
-1.19708e-06
-1.04053e-07
-1.14488e-06
-1.04041e-07
-1.09271e-06
-1.03941e-07
-1.0406e-06
-1.03772e-07
-9.88562e-07
-1.03541e-07
-9.36631e-07
-1.0327e-07
-8.84801e-07
-1.02959e-07
-8.33093e-07
-1.02637e-07
-7.81491e-07
-1.023e-07
-7.29999e-07
-1.01988e-07
-6.78582e-07
-1.01702e-07
-6.27224e-07
-1.01484e-07
-5.75875e-07
-1.01328e-07
-5.24501e-07
-1.01271e-07
-4.7305e-07
-1.01295e-07
-4.21478e-07
-1.01424e-07
-3.69743e-07
-1.01633e-07
-3.17796e-07
-1.01945e-07
-2.656e-07
-1.02339e-07
-2.13101e-07
-1.02836e-07
-1.60269e-07
-1.0342e-07
-1.07053e-07
-1.04083e-07
-5.34571e-08
-1.04769e-07
4.80776e-10
-1.05413e-07
5.46686e-08
-1.05912e-07
1.09022e-07
-1.06131e-07
1.633e-07
-1.05728e-07
2.17012e-07
-1.04188e-07
2.69611e-07
-1.00531e-07
3.17609e-07
-9.29987e-08
-6.76982e-08
3.64183e-07
5.29894e-10
1.0554e-08
4.04832e-09
1.55529e-08
1.80863e-08
3.4328e-09
4.99709e-08
-2.60108e-08
9.89301e-08
-6.4451e-08
1.56139e-07
-9.95847e-08
2.11998e-07
-1.23358e-07
2.60724e-07
-1.341e-07
3.00544e-07
-1.34071e-07
3.31912e-07
-1.26645e-07
3.5635e-07
-1.14774e-07
3.75282e-07
-1.00554e-07
3.89905e-07
-8.53039e-08
4.00994e-07
-6.9772e-08
4.09114e-07
-5.43573e-08
4.14608e-07
-3.92541e-08
4.17768e-07
-2.45494e-08
4.18812e-07
-1.02868e-08
4.1801e-07
3.51659e-09
4.15699e-07
1.6893e-08
4.12178e-07
2.99014e-08
4.0757e-07
4.25539e-08
4.01708e-07
5.47707e-08
3.94139e-07
6.63108e-08
3.84096e-07
7.67181e-08
3.70705e-07
8.52961e-08
3.53172e-07
9.11202e-08
3.31282e-07
9.31437e-08
3.05684e-07
9.04357e-08
2.78168e-07
8.24137e-08
2.51343e-07
6.90103e-08
2.2807e-07
5.06941e-08
2.1054e-07
2.84251e-08
2.00118e-07
3.63244e-09
1.95575e-07
-2.06559e-08
1.91392e-07
-3.7949e-08
1.8086e-07
-4.18221e-08
1.61455e-07
-3.23181e-08
1.33817e-07
-1.35624e-08
9.83594e-08
1.05178e-08
5.29669e-08
3.89846e-08
-8.32248e-09
7.11138e-08
-9.25622e-08
1.05742e-07
-2.02112e-07
1.44143e-07
-3.33835e-07
1.86143e-07
-4.80931e-07
2.29407e-07
-6.33979e-07
2.70686e-07
-7.8707e-07
3.06946e-07
-9.35381e-07
3.3613e-07
-1.07363e-06
3.57531e-07
-1.19881e-06
3.70834e-07
-1.31029e-06
3.75898e-07
-1.40756e-06
3.73363e-07
-1.49087e-06
3.64112e-07
-1.56156e-06
3.49345e-07
-1.62189e-06
3.30546e-07
-1.6743e-06
3.09303e-07
-1.72093e-06
2.87058e-07
-1.76364e-06
2.64902e-07
-1.80361e-06
2.43697e-07
-1.84154e-06
2.24046e-07
-1.87782e-06
2.06144e-07
-1.91298e-06
1.90001e-07
-1.94737e-06
1.75578e-07
-1.9809e-06
1.62842e-07
-2.01349e-06
1.51663e-07
-2.04518e-06
1.4184e-07
-2.07594e-06
1.33175e-07
-2.10577e-06
1.25486e-07
-2.13466e-06
1.18612e-07
-2.1626e-06
1.12411e-07
-2.18959e-06
1.06759e-07
-2.21561e-06
1.01552e-07
-2.24067e-06
9.66995e-08
-2.26476e-06
9.21298e-08
-2.28788e-06
8.77826e-08
-2.31001e-06
8.36085e-08
-2.33115e-06
7.95691e-08
-2.35129e-06
7.5634e-08
-2.37042e-06
7.17776e-08
-2.38854e-06
6.79821e-08
-2.40563e-06
6.42317e-08
-2.42169e-06
6.05157e-08
-2.4367e-06
5.68247e-08
-2.45068e-06
5.3151e-08
-2.4636e-06
4.94917e-08
-2.47548e-06
4.58441e-08
-2.48631e-06
4.22058e-08
-2.49612e-06
3.85845e-08
-2.5049e-06
3.49712e-08
-2.51264e-06
3.13828e-08
-2.51932e-06
2.78221e-08
-2.52496e-06
2.42771e-08
-2.52955e-06
2.07609e-08
-2.53312e-06
1.72612e-08
-2.53567e-06
1.37891e-08
-2.53723e-06
1.03367e-08
-2.5378e-06
6.91345e-09
-2.5374e-06
3.52119e-09
-2.53606e-06
1.68622e-10
-2.53376e-06
-3.13469e-09
-2.53048e-06
-6.39541e-09
-2.52616e-06
-9.63718e-09
-2.52082e-06
-1.29007e-08
-2.51442e-06
-1.61876e-08
-2.50697e-06
-1.95045e-08
-2.49846e-06
-2.2851e-08
-2.48887e-06
-2.62356e-08
-2.47818e-06
-2.96614e-08
-2.46637e-06
-3.3133e-08
-2.45342e-06
-3.66578e-08
-2.43931e-06
-4.02359e-08
-2.42401e-06
-4.38765e-08
-2.4075e-06
-4.75761e-08
-2.38976e-06
-5.13453e-08
-2.37075e-06
-5.5178e-08
-2.35045e-06
-5.90762e-08
-2.32882e-06
-6.3026e-08
-2.30585e-06
-6.70353e-08
-2.28154e-06
-7.11111e-08
-2.25591e-06
-7.52632e-08
-2.22892e-06
-7.94806e-08
-2.20058e-06
-8.37434e-08
-2.17081e-06
-8.80106e-08
-2.13963e-06
-9.22671e-08
-2.10703e-06
-9.64922e-08
-2.07304e-06
-1.0068e-07
-2.03765e-06
-1.04814e-07
-2.00093e-06
-1.08885e-07
-1.96287e-06
-1.12876e-07
-1.92354e-06
-1.16765e-07
-1.88296e-06
-1.20539e-07
-1.8412e-06
-1.24176e-07
-1.7983e-06
-1.27659e-07
-1.75433e-06
-1.30975e-07
-1.70935e-06
-1.34113e-07
-1.66342e-06
-1.37055e-07
-1.61664e-06
-1.39814e-07
-1.56912e-06
-1.42408e-07
-1.52096e-06
-1.44805e-07
-1.47218e-06
-1.46952e-07
-1.42285e-06
-1.48831e-07
-1.37305e-06
-1.50443e-07
-1.32284e-06
-1.51798e-07
-1.27231e-06
-1.5291e-07
-1.22151e-06
-1.53791e-07
-1.17053e-06
-1.54458e-07
-1.1194e-06
-1.54923e-07
-1.06819e-06
-1.5521e-07
-1.01694e-06
-1.55331e-07
-9.65692e-07
-1.55316e-07
-9.1447e-07
-1.5518e-07
-8.63301e-07
-1.54955e-07
-8.12198e-07
-1.54651e-07
-7.61172e-07
-1.54299e-07
-7.10226e-07
-1.53904e-07
-6.59361e-07
-1.53494e-07
-6.08571e-07
-1.53081e-07
-5.57839e-07
-1.52704e-07
-5.07144e-07
-1.52382e-07
-4.56448e-07
-1.52157e-07
-4.05715e-07
-1.52042e-07
-3.54894e-07
-1.52066e-07
-3.03943e-07
-1.5223e-07
-2.52806e-07
-1.52536e-07
-2.01448e-07
-1.52978e-07
-1.49817e-07
-1.53557e-07
-9.78778e-08
-1.54271e-07
-4.55819e-08
-1.55117e-07
7.08703e-09
-1.56087e-07
6.01662e-08
-1.57154e-07
1.13673e-07
-1.58279e-07
1.67624e-07
-1.59359e-07
2.21962e-07
-1.60253e-07
2.76567e-07
-1.60729e-07
3.31229e-07
-1.60388e-07
3.85624e-07
-1.58575e-07
4.39303e-07
-1.54213e-07
4.91292e-07
-1.44994e-07
-1.21351e-07
5.44946e-07
1.94086e-11
1.06404e-08
1.22745e-08
3.45137e-09
5.02383e-08
-3.44155e-08
1.10156e-07
-8.58934e-08
1.75927e-07
-1.30173e-07
2.33456e-07
-1.57104e-07
2.76823e-07
-1.6669e-07
3.06488e-07
-1.6376e-07
3.25839e-07
-1.53394e-07
3.38372e-07
-1.39173e-07
3.46782e-07
-1.23159e-07
3.52652e-07
-1.06419e-07
3.56862e-07
-8.9492e-08
3.59754e-07
-7.26585e-08
3.61488e-07
-5.6074e-08
3.62077e-07
-3.98366e-08
3.61555e-07
-2.40147e-08
3.59938e-07
-8.66499e-09
3.57297e-07
6.16402e-09
3.53746e-07
2.04479e-08
3.49481e-07
3.41664e-08
3.4474e-07
4.72947e-08
3.39718e-07
5.97859e-08
3.34503e-07
7.15199e-08
3.28947e-07
8.22562e-08
3.22666e-07
9.15653e-08
3.14989e-07
9.87723e-08
3.05183e-07
1.02935e-07
2.92654e-07
1.02936e-07
2.77356e-07
9.76997e-08
2.59813e-07
8.65252e-08
2.41253e-07
6.92592e-08
2.22929e-07
4.67313e-08
2.04582e-07
2.1984e-08
1.8134e-07
2.5868e-09
1.47278e-07
-3.90045e-09
1.01454e-07
3.99463e-09
4.46931e-08
2.44089e-08
-2.43948e-08
5.55119e-08
-1.08927e-07
9.50154e-08
-2.1016e-07
1.40203e-07
-3.27329e-07
1.88265e-07
-4.58338e-07
2.36742e-07
-5.98135e-07
2.8393e-07
-7.40176e-07
3.28181e-07
-8.78203e-07
3.67425e-07
-1.00656e-06
3.9904e-07
-1.12143e-06
4.218e-07
-1.22129e-06
4.35978e-07
-1.30566e-06
4.41881e-07
-1.37516e-06
4.40316e-07
-1.4316e-06
4.32316e-07
-1.47723e-06
4.18973e-07
-1.51464e-06
4.01493e-07
-1.54643e-06
3.8111e-07
-1.57492e-06
3.59014e-07
-1.6019e-06
3.36256e-07
-1.62855e-06
3.13679e-07
-1.65558e-06
2.91906e-07
-1.68326e-06
2.7136e-07
-1.71156e-06
2.52326e-07
-1.74035e-06
2.34912e-07
-1.76948e-06
2.19114e-07
-1.79879e-06
2.04877e-07
-1.82807e-06
1.92112e-07
-1.85711e-06
1.80696e-07
-1.88576e-06
1.70479e-07
-1.9139e-06
1.613e-07
-1.94142e-06
1.53006e-07
-1.96828e-06
1.45458e-07
-1.9944e-06
1.38528e-07
-2.01975e-06
1.32105e-07
-2.04429e-06
1.26092e-07
-2.068e-06
1.20407e-07
-2.09085e-06
1.14979e-07
-2.11282e-06
1.09751e-07
-2.13389e-06
1.04678e-07
-2.15404e-06
9.97213e-08
-2.17326e-06
9.48512e-08
-2.19152e-06
9.00447e-08
-2.20883e-06
8.52841e-08
-2.22516e-06
8.0556e-08
-2.2405e-06
7.58503e-08
-2.25484e-06
7.11597e-08
-2.26818e-06
6.64795e-08
-2.2805e-06
6.18066e-08
-2.29182e-06
5.71405e-08
-2.30211e-06
5.24846e-08
-2.31142e-06
4.78334e-08
-2.31972e-06
4.32142e-08
-2.32701e-06
3.86045e-08
-2.33328e-06
3.403e-08
-2.33853e-06
2.94793e-08
-2.34278e-06
2.49628e-08
-2.34603e-06
2.04723e-08
-2.34829e-06
1.60171e-08
-2.34956e-06
1.15915e-08
-2.34986e-06
7.20213e-09
-2.34918e-06
2.8485e-09
-2.34753e-06
-1.46872e-09
-2.34489e-06
-5.74789e-09
-2.34123e-06
-1.00078e-08
-2.33655e-06
-1.42636e-08
-2.33086e-06
-1.85498e-08
-2.32416e-06
-2.28661e-08
-2.31643e-06
-2.72272e-08
-2.30767e-06
-3.16287e-08
-2.29786e-06
-3.60843e-08
-2.28698e-06
-4.05932e-08
-2.27501e-06
-4.51663e-08
-2.26194e-06
-4.98077e-08
-2.24773e-06
-5.45231e-08
-2.23237e-06
-5.93206e-08
-2.21583e-06
-6.42e-08
-2.19809e-06
-6.91724e-08
-2.17911e-06
-7.423e-08
-2.15888e-06
-7.9372e-08
-2.13735e-06
-8.45867e-08
-2.11452e-06
-8.98885e-08
-2.09039e-06
-9.52725e-08