/*--------------------------------*- C++ -*----------------------------------*\
  =========                 |
  \\      /  F ield         | OpenFOAM: The Open Source CFD Toolbox
   \\    /   O peration     | Website:  https://openfoam.org
    \\  /    A nd           | Version:  13
     \\/     M anipulation  |
\*---------------------------------------------------------------------------*/
FoamFile
{
    format      ascii;
    class       volVectorField;
    location    "500";
    object      U;
}
// * * * * * * * * * * * * * * * * * * * * * * * * * * * * * * * * * * * * * //

dimensions      [0 1 -1 0 0 0 0];

internalField   nonuniform List<vector> 
12225
(
(9.77146 0.0437449 0)
(9.34899 0.0910909 0)
(8.93678 0.0985701 0)
(8.54412 0.0908951 0)
(8.20291 0.0762714 0)
(7.91544 0.0793679 0)
(7.67167 0.0772525 0)
(7.46665 0.0636837 0)
(7.28909 0.0635561 0)
(7.13246 0.0572684 0)
(7.00326 0.0512504 0)
(6.88657 0.0410563 0)
(6.79533 0.016984 0)
(6.72538 -0.00375995 0)
(6.66729 -0.00894953 0)
(6.61531 -0.00380207 0)
(6.57917 0.00431186 0)
(6.55958 0.00993817 0)
(10.089 0.0567523 0)
(10.2411 0.084752 0)
(10.3362 0.0835785 0)
(10.372 0.0822472 0)
(10.3614 0.081173 0)
(10.3186 0.074627 0)
(10.2243 0.0676262 0)
(10.1327 0.0641585 0)
(10.0268 0.0600307 0)
(9.92065 0.0564177 0)
(9.81533 0.0519298 0)
(9.71633 0.0482707 0)
(9.62114 0.0478276 0)
(9.5383 0.0454504 0)
(9.4676 0.040189 0)
(9.40244 0.0336764 0)
(9.33856 0.0255367 0)
(9.27375 0.0149326 0)
(10.0144 0.0406014 0)
(10.0703 0.0637436 0)
(10.118 0.0674771 0)
(10.1592 0.0703852 0)
(10.1965 0.0749971 0)
(10.2319 0.0796821 0)
(10.2607 0.0818765 0)
(10.2806 0.0809973 0)
(10.2924 0.0801691 0)
(10.2988 0.0777384 0)
(10.2992 0.0754238 0)
(10.2961 0.0718345 0)
(10.2872 0.0654474 0)
(10.2731 0.0600322 0)
(10.2574 0.0569156 0)
(10.242 0.0534986 0)
(10.2273 0.0483513 0)
(10.2125 0.0390889 0)
(10.0072 0.0301564 0)
(10.0377 0.0531456 0)
(10.0636 0.059798 0)
(10.0825 0.0642263 0)
(10.0972 0.0679865 0)
(10.1134 0.0711953 0)
(10.1312 0.072405 0)
(10.148 0.0715677 0)
(10.1636 0.0709458 0)
(10.1789 0.0690358 0)
(10.1934 0.0664387 0)
(10.2073 0.0630223 0)
(10.2194 0.0582354 0)
(10.2289 0.0532066 0)
(10.2369 0.0493021 0)
(10.2446 0.04576 0)
(10.252 0.0413216 0)
(10.2589 0.0337944 0)
(10.0049 0.0238846 0)
(10.0283 0.0484377 0)
(10.0492 0.0568682 0)
(10.0646 0.0610433 0)
(10.0765 0.0645872 0)
(10.0881 0.0673138 0)
(10.1002 0.0684477 0)
(10.1117 0.0680765 0)
(10.1226 0.0674866 0)
(10.1331 0.0658805 0)
(10.1433 0.0636013 0)
(10.153 0.0604592 0)
(10.1617 0.0561763 0)
(10.169 0.0516423 0)
(10.1754 0.0476675 0)
(10.1819 0.0437895 0)
(10.1883 0.039239 0)
(10.1942 0.0326709 0)
(10.0034 0.019586 0)
(10.0217 0.0427557 0)
(10.0403 0.0521541 0)
(10.0544 0.0566853 0)
(10.066 0.0604041 0)
(10.077 0.0631197 0)
(10.0882 0.0642329 0)
(10.0987 0.0639516 0)
(10.1086 0.0631071 0)
(10.118 0.06141 0)
(10.1269 0.059077 0)
(10.1353 0.0559354 0)
(10.1427 0.0519692 0)
(10.149 0.0477938 0)
(10.1546 0.0438665 0)
(10.1599 0.0398773 0)
(10.1649 0.0354134 0)
(10.1693 0.0297053 0)
(10.0024 0.0160411 0)
(10.0166 0.0376029 0)
(10.0338 0.0475753 0)
(10.0472 0.0527058 0)
(10.0584 0.0565654 0)
(10.069 0.0592342 0)
(10.0796 0.0603751 0)
(10.0897 0.0602746 0)
(10.0992 0.0594719 0)
(10.1081 0.0579005 0)
(10.1164 0.0557112 0)
(10.1242 0.0528359 0)
(10.1311 0.0493223 0)
(10.1371 0.0455734 0)
(10.1424 0.0418479 0)
(10.1472 0.0379673 0)
(10.1516 0.0337488 0)
(10.1553 0.0287207 0)
(10.0017 0.0132939 0)
(10.0126 0.032495 0)
(10.0284 0.0430798 0)
(10.0412 0.0487396 0)
(10.052 0.0526301 0)
(10.0623 0.0552105 0)
(10.0724 0.0564033 0)
(10.0821 0.0564326 0)
(10.0911 0.0556655 0)
(10.0996 0.0541772 0)
(10.1076 0.0520764 0)
(10.1149 0.049354 0)
(10.1214 0.0461073 0)
(10.1272 0.0426144 0)
(10.1323 0.0390292 0)
(10.1369 0.0352742 0)
(10.141 0.0312942 0)
(10.1444 0.026823 0)
(10.0012 0.011147 0)
(10.0098 0.0278001 0)
(10.0235 0.0384463 0)
(10.0356 0.0443965 0)
(10.0462 0.0483513 0)
(10.0561 0.0509396 0)
(10.0659 0.0521672 0)
(10.0751 0.0522611 0)
(10.0838 0.0515379 0)
(10.092 0.0501422 0)
(10.0996 0.0481704 0)
(10.1066 0.0456401 0)
(10.113 0.0426714 0)
(10.1186 0.0394548 0)
(10.1236 0.0361042 0)
(10.1281 0.032598 0)
(10.1319 0.0289496 0)
(10.1351 0.0250241 0)
(10.0009 0.00936142 0)
(10.0077 0.0235993 0)
(10.0193 0.0338389 0)
(10.0305 0.0399573 0)
(10.0407 0.0439738 0)
(10.0504 0.0465771 0)
(10.0598 0.0478634 0)
(10.0688 0.0480395 0)
(10.0772 0.0473835 0)
(10.0851 0.046078 0)
(10.0924 0.0442325 0)
(10.0992 0.0418967 0)
(10.1053 0.0391802 0)
(10.1109 0.0362249 0)
(10.1158 0.0331192 0)
(10.1201 0.029877 0)
(10.1239 0.0265492 0)
(10.127 0.0230847 0)
(10.0007 0.00784561 0)
(10.0061 0.0199294 0)
(10.0157 0.0294623 0)
(10.0259 0.035511 0)
(10.0356 0.0394631 0)
(10.045 0.0420313 0)
(10.054 0.043352 0)
(10.0628 0.0436162 0)
(10.0709 0.0430641 0)
(10.0786 0.04188 0)
(10.0857 0.0401789 0)
(10.0923 0.0380355 0)
(10.0982 0.0355487 0)
(10.1036 0.0328388 0)
(10.1084 0.029976 0)
(10.1127 0.0270108 0)
(10.1164 0.0240026 0)
(10.1196 0.0209479 0)
(10.0006 0.00662146 0)
(10.005 0.017053 0)
(10.0132 0.0257688 0)
(10.0224 0.0315358 0)
(10.0315 0.0353013 0)
(10.0404 0.0377514 0)
(10.0491 0.0390398 0)
(10.0575 0.039343 0)
(10.0654 0.0388733 0)
(10.0728 0.0378025 0)
(10.0797 0.0362454 0)
(10.0861 0.034286 0)
(10.0919 0.0320235 0)
(10.0972 0.0295433 0)
(10.1019 0.0269308 0)
(10.1061 0.0242272 0)
(10.1098 0.0215098 0)
(10.113 0.0187789 0)
(10.0005 0.00558457 0)
(10.0041 0.0143714 0)
(10.011 0.0221947 0)
(10.0193 0.027606 0)
(10.0277 0.0311666 0)
(10.0361 0.0335032 0)
(10.0443 0.0347643 0)
(10.0524 0.0351094 0)
(10.06 0.0347228 0)
(10.0672 0.0337616 0)
(10.0739 0.0323379 0)
(10.0801 0.0305415 0)
(10.0858 0.0284627 0)
(10.091 0.026187 0)
(10.0956 0.0237889 0)
(10.0998 0.0213251 0)
(10.1034 0.0188583 0)
(10.1066 0.0164221 0)
(10.0004 0.00459015 0)
(10.0033 0.0117455 0)
(10.0091 0.0184634 0)
(10.0163 0.0233091 0)
(10.024 0.0265253 0)
(10.0318 0.0286338 0)
(10.0395 0.0297879 0)
(10.0471 0.0301191 0)
(10.0544 0.0297878 0)
(10.0613 0.0289328 0)
(10.0677 0.0276547 0)
(10.0737 0.0260497 0)
(10.0792 0.0241856 0)
(10.0842 0.022158 0)
(10.0887 0.0200125 0)
(10.0928 0.0178283 0)
(10.0964 0.015645 0)
(10.0996 0.0135092 0)
(10.0003 0.00360911 0)
(10.0027 0.0091387 0)
(10.0075 0.0145615 0)
(10.0137 0.0186438 0)
(10.0207 0.0213716 0)
(10.0278 0.0231576 0)
(10.0349 0.0241286 0)
(10.042 0.0243977 0)
(10.0488 0.0240937 0)
(10.0553 0.0233276 0)
(10.0614 0.0222011 0)
(10.0671 0.0207859 0)
(10.0723 0.019165 0)
(10.0771 0.0173891 0)
(10.0815 0.015535 0)
(10.0854 0.0136379 0)
(10.089 0.0117623 0)
(10.0922 0.00992371 0)
(10.0003 0.00263397 0)
(10.0022 0.00653539 0)
(10.0062 0.0105116 0)
(10.0116 0.0136335 0)
(10.0177 0.0157194 0)
(10.0242 0.0170721 0)
(10.0307 0.0177764 0)
(10.0373 0.0179251 0)
(10.0436 0.0176068 0)
(10.0497 0.0169132 0)
(10.0554 0.0159265 0)
(10.0607 0.0147091 0)
(10.0657 0.0133262 0)
(10.0703 0.0118263 0)
(10.0745 0.0102628 0)
(10.0783 0.00867325 0)
(10.0818 0.00709873 0)
(10.085 0.00556194 0)
(10.0002 0.00164711 0)
(10.0019 0.00389192 0)
(10.0053 0.00629817 0)
(10.01 0.00826595 0)
(10.0155 0.00955238 0)
(10.0213 0.0103407 0)
(10.0273 0.0106861 0)
(10.0333 0.0106393 0)
(10.0392 0.01026 0)
(10.0448 0.00961328 0)
(10.0502 0.0087484 0)
(10.0552 0.0077268 0)
(10.06 0.00657882 0)
(10.0643 0.00535872 0)
(10.0683 0.00408526 0)
(10.0721 0.0028054 0)
(10.0754 0.00152692 0)
(10.0786 0.000286127 0)
(10.0002 0.000613884 0)
(10.0017 0.00110017 0)
(10.0047 0.00179922 0)
(10.009 0.00243394 0)
(10.014 0.00274514 0)
(10.0193 0.00283625 0)
(10.0249 0.00271235 0)
(10.0305 0.00239088 0)
(10.036 0.00189578 0)
(10.0413 0.00125507 0)
(10.0464 0.000497481 0)
(10.0512 -0.00035001 0)
(10.0557 -0.00126312 0)
(10.0599 -0.00221865 0)
(10.0638 -0.00319702 0)
(10.0674 -0.00417851 0)
(10.0707 -0.00515323 0)
(10.0738 -0.00610313 0)
(10.0002 -0.000550583 0)
(10.0017 -0.00207244 0)
(10.0046 -0.00327974 0)
(10.0088 -0.00416804 0)
(10.0136 -0.00498163 0)
(10.0188 -0.00570833 0)
(10.0242 -0.0063878 0)
(10.0296 -0.00704784 0)
(10.035 -0.00770166 0)
(10.0401 -0.0083613 0)
(10.045 -0.0090317 0)
(10.0496 -0.00971264 0)
(10.054 -0.0104024 0)
(10.0581 -0.0110953 0)
(10.0619 -0.0117876 0)
(10.0654 -0.0124709 0)
(10.0687 -0.0131462 0)
(10.0717 -0.0138001 0)
(10.0002 -0.00171794 0)
(10.0019 -0.00527092 0)
(10.0052 -0.00831901 0)
(10.0098 -0.0106272 0)
(10.015 -0.0124678 0)
(10.0205 -0.013918 0)
(10.0261 -0.0150807 0)
(10.0316 -0.0160164 0)
(10.0371 -0.0167846 0)
(10.0423 -0.0174362 0)
(10.0472 -0.0180053 0)
(10.0518 -0.0185219 0)
(10.0562 -0.0189977 0)
(10.0603 -0.0194515 0)
(10.0641 -0.0198836 0)
(10.0676 -0.0203056 0)
(10.0708 -0.0207152 0)
(10.0739 -0.0211132 0)
(10.0003 -0.00282052 0)
(10.0024 -0.00830117 0)
(10.0063 -0.0129323 0)
(10.0116 -0.0163538 0)
(10.0174 -0.0189408 0)
(10.0234 -0.0208947 0)
(10.0294 -0.0223589 0)
(10.0352 -0.0234335 0)
(10.0409 -0.0242187 0)
(10.0463 -0.0248003 0)
(10.0513 -0.0252402 0)
(10.0561 -0.025585 0)
(10.0605 -0.0258637 0)
(10.0646 -0.0261052 0)
(10.0684 -0.0263197 0)
(10.072 -0.0265234 0)
(10.0753 -0.0267205 0)
(10.0783 -0.0269119 0)
(10.0003 -0.00403879 0)
(10.0031 -0.0115941 0)
(10.0081 -0.017716 0)
(10.0144 -0.022043 0)
(10.021 -0.0251949 0)
(10.0276 -0.0275092 0)
(10.0341 -0.0291538 0)
(10.0404 -0.0302657 0)
(10.0464 -0.0309898 0)
(10.052 -0.0314463 0)
(10.0573 -0.0317182 0)
(10.0622 -0.0318654 0)
(10.0667 -0.031938 0)
(10.0709 -0.0319654 0)
(10.0748 -0.0319759 0)
(10.0783 -0.0319756 0)
(10.0817 -0.0319848 0)
(10.0847 -0.0319898 0)
(10.0005 -0.00547461 0)
(10.0042 -0.015328 0)
(10.0107 -0.0227972 0)
(10.0183 -0.0277916 0)
(10.0258 -0.0313467 0)
(10.0331 -0.0338955 0)
(10.0402 -0.0355978 0)
(10.0471 -0.0366433 0)
(10.0535 -0.0372341 0)
(10.0594 -0.0375172 0)
(10.0649 -0.0375871 0)
(10.07 -0.0375168 0)
(10.0747 -0.0373647 0)
(10.0789 -0.0371753 0)
(10.0829 -0.036978 0)
(10.0865 -0.0367902 0)
(10.0899 -0.036623 0)
(10.093 -0.0364618 0)
(10.0007 -0.00725586 0)
(10.0059 -0.0196838 0)
(10.0144 -0.0282174 0)
(10.0234 -0.0335823 0)
(10.0319 -0.037397 0)
(10.0401 -0.0400743 0)
(10.048 -0.0417349 0)
(10.0554 -0.0426291 0)
(10.0623 -0.043021 0)
(10.0686 -0.0430824 0)
(10.0744 -0.0429178 0)
(10.0797 -0.0426101 0)
(10.0845 -0.0422269 0)
(10.0889 -0.0418206 0)
(10.093 -0.0414206 0)
(10.0967 -0.0410548 0)
(10.1001 -0.0407346 0)
(10.1033 -0.0404479 0)
(10.001 -0.00952709 0)
(10.0085 -0.0248353 0)
(10.0197 -0.0340054 0)
(10.0303 -0.0394335 0)
(10.0398 -0.0433552 0)
(10.0489 -0.0460552 0)
(10.0577 -0.0475906 0)
(10.0659 -0.0482926 0)
(10.0733 -0.0484573 0)
(10.0801 -0.0482596 0)
(10.0863 -0.0478221 0)
(10.0919 -0.0472415 0)
(10.097 -0.0465981 0)
(10.1016 -0.0459531 0)
(10.1058 -0.0453412 0)
(10.1096 -0.0447766 0)
(10.1132 -0.0442761 0)
(10.1164 -0.0438321 0)
(10.0016 -0.0125649 0)
(10.0125 -0.0306916 0)
(10.0271 -0.0400461 0)
(10.0396 -0.0454737 0)
(10.0505 -0.0493811 0)
(10.0611 -0.0518909 0)
(10.0712 -0.0531397 0)
(10.0804 -0.0535763 0)
(10.0888 -0.0535117 0)
(10.0963 -0.05309 0)
(10.1032 -0.0524275 0)
(10.1093 -0.051624 0)
(10.1149 -0.0507688 0)
(10.1198 -0.0499318 0)
(10.1243 -0.0491625 0)
(10.1283 -0.0484779 0)
(10.132 -0.0478677 0)
(10.1353 -0.0472876 0)
(10.0029 -0.0172027 0)
(10.0196 -0.0369141 0)
(10.0391 -0.0455407 0)
(10.0551 -0.0512543 0)
(10.0691 -0.055467 0)
(10.0826 -0.0577926 0)
(10.0953 -0.0586304 0)
(10.1067 -0.058603 0)
(10.1169 -0.0580773 0)
(10.126 -0.0572188 0)
(10.134 -0.0561386 0)
(10.1412 -0.054945 0)
(10.1474 -0.0537486 0)
(10.1527 -0.0526086 0)
(10.1573 -0.0515637 0)
(10.1613 -0.0506757 0)
(10.1649 -0.0499456 0)
(10.1678 -0.0492601 0)
(10.007 -0.0259479 0)
(10.0401 -0.0463051 0)
(10.072 -0.0521168 0)
(10.0985 -0.0571713 0)
(10.1219 -0.0619219 0)
(10.1433 -0.0648025 0)
(10.1621 -0.0660135 0)
(10.1777 -0.0661776 0)
(10.1904 -0.0656445 0)
(10.2004 -0.0646151 0)
(10.208 -0.0632209 0)
(10.2133 -0.0616034 0)
(10.2166 -0.0598962 0)
(10.2181 -0.0582422 0)
(10.218 -0.0567243 0)
(10.2166 -0.055371 0)
(10.2142 -0.0542489 0)
(10.2111 -0.053436 0)
(10.0514 -0.0380011 0)
(10.1521 -0.0656529 0)
(10.225 -0.069849 0)
(10.2651 -0.0708598 0)
(10.2862 -0.0715119 0)
(10.2933 -0.0709698 0)
(10.2881 -0.0693782 0)
(10.2729 -0.0672173 0)
(10.2498 -0.064715 0)
(10.2213 -0.0620084 0)
(10.1886 -0.0591526 0)
(10.1531 -0.0562564 0)
(10.1153 -0.0533464 0)
(10.0764 -0.0506645 0)
(10.0368 -0.0482999 0)
(9.99772 -0.0460978 0)
(9.95955 -0.0442697 0)
(9.92291 -0.0432781 0)
(9.87074 -0.0354085 0)
(9.61947 -0.0749812 0)
(9.34963 -0.085637 0)
(9.08188 -0.0862307 0)
(8.83175 -0.0827819 0)
(8.60452 -0.0771001 0)
(8.39988 -0.0702766 0)
(8.21661 -0.0630373 0)
(8.05393 -0.0559449 0)
(7.91024 -0.0492037 0)
(7.78428 -0.0428894 0)
(7.6741 -0.03705 0)
(7.57822 -0.0317118 0)
(7.49466 -0.0269472 0)
(7.42212 -0.0229327 0)
(7.35791 -0.0196254 0)
(7.30002 -0.0169801 0)
(7.24829 -0.0153388 0)
(-0.00257559 0.00713636 -7.82191e-19)
(-0.0119812 0.0120721 9.07733e-19)
(-0.024799 0.0135358 -6.31058e-19)
(-0.0384223 0.0120364 -1.93794e-19)
(-0.0485579 0.00674399 3.01523e-19)
(-0.0481129 -0.00239649 -7.52825e-20)
(-0.0332135 -0.0149697 -7.56308e-20)
(-0.00686938 -0.0283407 3.85715e-19)
(0.0277403 -0.0385707 -1.82606e-19)
(0.0677636 -0.0438147 4.31734e-20)
(0.110367 -0.0446468 1.392e-20)
(0.152225 -0.0422023 -1.49714e-19)
(0.190613 -0.0374939 2.0848e-19)
(0.223844 -0.031319 2.12483e-19)
(0.25102 -0.024233 1.8262e-20)
(0.27171 -0.0165939 7.69166e-20)
(0.285612 -0.00861333 3.02839e-20)
(0.292792 -0.00027433 5.27243e-20)
(0.292566 0.00841073 7.85575e-20)
(0.28465 0.0170778 8.49697e-21)
(0.269608 0.025055 -2.89947e-20)
(0.248031 0.03158 2.46937e-19)
(0.220659 0.0359321 -3.31389e-20)
(0.188666 0.0375108 2.90237e-19)
(0.153649 0.0358528 -6.70749e-20)
(0.11765 0.0308399 2.93296e-19)
(0.0829815 0.0228972 1.7578e-19)
(0.0520219 0.0132603 1.404e-19)
(0.0267831 0.00403293 -7.04195e-19)
(0.00834518 -0.00249713 -1.62207e-19)
(-0.00381076 -0.00569774 -1.20705e-18)
(-0.0112571 -0.00714218 6.84307e-19)
(-0.0142942 -0.00853809 4.93252e-19)
(-0.0109518 -0.0110164 -6.09715e-19)
(-0.00172258 -0.0150328 -9.10921e-19)
(0.0148307 -0.0203352 -4.82672e-20)
(0.0387605 -0.0257868 1.94143e-19)
(0.0673834 -0.028832 3.59741e-19)
(0.0966458 -0.0279734 2.03327e-19)
(0.121642 -0.0231097 4.10381e-19)
(0.138807 -0.0157136 1.51439e-19)
(0.147081 -0.00809172 3.90526e-20)
(0.147743 -0.00243087 -5.21785e-19)
(0.144322 8.18157e-05 -1.08587e-19)
(0.140852 -0.00123545 2.2755e-19)
(0.139685 -0.00712208 1.17892e-20)
(0.138472 -0.0171465 5.45463e-19)
(0.130631 -0.0266572 1.76926e-19)
(0.109169 -0.0253418 7.59334e-20)
(0.0692495 -0.00695464 -7.19392e-19)
(-0.00376629 0.0147143 5.35696e-19)
(-0.102927 0.0343305 3.01002e-20)
(-0.208749 0.0573141 2.70532e-19)
(-0.325922 0.0805728 1.57571e-19)
(-0.452206 0.100091 4.97175e-20)
(-0.584328 0.111461 1.00084e-19)
(-0.718861 0.114707 1.21115e-19)
(-0.850958 0.113363 -1.2151e-19)
(-0.97839 0.107827 4.53094e-20)
(-1.09965 0.1002 4.83124e-20)
(-1.21221 0.0940936 -1.09221e-19)
(-1.31661 0.089064 -6.8623e-20)
(-1.4133 0.0807999 5.22823e-20)
(-1.50181 0.0713947 6.14344e-20)
(-1.58276 0.0647126 1.68982e-20)
(-1.65729 0.0590622 -6.40109e-20)
(-1.72601 0.05394 6.96376e-21)
(-1.78962 0.0494995 3.26854e-21)
(-1.84871 0.045579 1.62048e-20)
(-1.90386 0.0421744 7.87225e-20)
(-1.95554 0.0391794 -3.90206e-21)
(-2.00418 0.0365546 -5.64277e-20)
(-2.05013 0.0342197 6.05804e-20)
(-2.09367 0.0321325 2.20104e-20)
(-2.13504 0.0302426 -3.55205e-20)
(-2.17444 0.028514 2.94565e-20)
(-2.212 0.0269174 -4.52487e-21)
(-2.24786 0.0254248 5.6606e-20)
(-2.2821 0.0240231 2.60414e-20)
(-2.31479 0.02269 -3.8413e-20)
(-2.34601 0.0214207 -1.0962e-20)
(-2.37579 0.020201 2.1671e-21)
(-2.40418 0.0190289 4.30168e-20)
(-2.4312 0.0178975 5.33561e-20)
(-2.45687 0.0168032 4.6924e-20)
(-2.48122 0.0157467 -4.75724e-20)
(-2.50425 0.0147193 1.01079e-19)
(-2.526 0.0137273 -4.00768e-21)
(-2.54648 0.0127663 7.2244e-20)
(-2.56574 0.0118199 -1.02163e-19)
(-2.58375 0.010906 -5.4691e-20)
(-2.60049 0.0100023 4.58772e-20)
(-2.61596 0.00911029 6.65519e-20)
(-2.63015 0.00821131 -1.00697e-20)
(-2.64306 0.00730077 -6.22082e-20)
(-2.65468 0.00636193 -6.15905e-20)
(-2.665 0.00539228 6.29815e-20)
(-2.674 0.00439116 -3.38198e-20)
(-2.68165 0.00337273 -8.0401e-20)
(-2.68791 0.00235622 -3.49172e-20)
(-2.69272 0.00136708 8.5894e-20)
(-2.696 0.000473844 4.30183e-20)
(-2.6977 -0.000233361 6.41292e-20)
(-2.69824 -0.000774183 -3.91122e-20)
(-2.69772 -0.00127886 1.24296e-20)
(-2.69614 -0.00176501 4.30866e-21)
(-2.69354 -0.00224698 -7.88368e-21)
(-2.6899 -0.00272305 -1.70479e-20)
(-2.68521 -0.00320166 -2.55548e-20)
(-2.67945 -0.00368187 -4.14992e-20)
(-2.67258 -0.00416681 -5.67572e-20)
(-2.66459 -0.00466126 2.99951e-20)
(-2.65544 -0.00516192 -4.1797e-20)
(-2.6451 -0.00567977 -4.08187e-20)
(-2.63355 -0.00620517 7.18282e-20)
(-2.62076 -0.00675517 -4.23809e-21)
(-2.6067 -0.0073143 -4.59605e-20)
(-2.59131 -0.00789946 -4.78571e-20)
(-2.57456 -0.00849211 4.41334e-20)
(-2.55643 -0.00911202 3.29896e-21)
(-2.53695 -0.00974867 1.32386e-20)
(-2.51611 -0.0104182 -8.66384e-21)
(-2.49388 -0.0110973 -2.53083e-20)
(-2.47019 -0.0118036 2.1384e-20)
(-2.44502 -0.0125044 -1.88553e-20)
(-2.41834 -0.0132268 1.70146e-20)
(-2.39015 -0.0139381 2.29726e-20)
(-2.36048 -0.014662 -8.1138e-21)
(-2.32933 -0.0153722 2.23144e-20)
(-2.29672 -0.0161011 -1.94037e-20)
(-2.26268 -0.0167993 4.59827e-20)
(-2.22724 -0.0175025 -3.89579e-21)
(-2.19044 -0.0181682 -4.56164e-20)
(-2.15234 -0.0187931 1.02452e-20)
(-2.11297 -0.0193373 -2.2602e-21)
(-2.07246 -0.0196909 9.99494e-21)
(-2.0309 -0.0198187 9.37968e-21)
(-1.98842 -0.0197479 -3.77506e-21)
(-1.94504 -0.019992 7.1559e-22)
(-1.90075 -0.0205028 -7.06355e-22)
(-1.85561 -0.0209017 2.19948e-20)
(-1.80972 -0.0212478 2.59222e-20)
(-1.76313 -0.0215379 -1.66572e-20)
(-1.71593 -0.0217738 -2.03348e-20)
(-1.66817 -0.02196 -3.98955e-20)
(-1.61994 -0.0220953 -6.24048e-20)
(-1.5713 -0.0221849 -4.98119e-20)
(-1.52231 -0.0222285 -8.44512e-20)
(-1.47303 -0.0222325 4.33785e-20)
(-1.42351 -0.0221981 4.16699e-20)
(-1.37382 -0.0221319 7.38557e-20)
(-1.32399 -0.0220364 5.61323e-20)
(-1.27406 -0.0219175 1.62602e-19)
(-1.22407 -0.0217789 1.1188e-20)
(-1.17405 -0.0216252 7.27341e-21)
(-1.12401 -0.021462 -1.28324e-19)
(-1.07396 -0.0212936 2.05253e-19)
(-1.02392 -0.0211292 -1.23084e-19)
(-0.973887 -0.0209735 1.72488e-20)
(-0.923842 -0.0208384 6.28195e-20)
(-0.873762 -0.0207274 2.30546e-20)
(-0.82362 -0.0206523 5.89901e-20)
(-0.773373 -0.0206132 2.80341e-19)
(-0.722983 -0.0206196 1.38601e-19)
(-0.672401 -0.020668 6.55977e-20)
(-0.621589 -0.0207677 9.30834e-20)
(-0.570498 -0.0209163 2.63276e-19)
(-0.519086 -0.0211224 -1.1542e-20)
(-0.4673 -0.0213843 3.04539e-19)
(-0.415093 -0.0217105 4.40411e-19)
(-0.362413 -0.0220931 4.29586e-19)
(-0.309236 -0.0225288 -1.56904e-20)
(-0.255541 -0.0230146 4.07802e-20)
(-0.201354 -0.0235634 -9.68957e-20)
(-0.146803 -0.0241156 -1.22232e-18)
(-0.0921735 -0.0245121 6.09396e-19)
(-0.0377903 -0.0245397 4.52759e-19)
(0.0133071 -0.0234639 -8.8949e-19)
(0.0705214 -0.020832 -8.17074e-19)
(0.0859501 -0.00915757 1.19473e-18)
(-0.000219368 0.0191907 2.19473e-18)
(-0.00542234 0.033446 -1.73527e-18)
(-0.011356 0.0349454 -7.42986e-19)
(-0.011783 0.0261071 2.13068e-18)
(0.00121867 0.00549107 4.44057e-19)
(0.0294535 -0.0293298 1.87471e-19)
(0.0673232 -0.0693906 -1.17844e-19)
(0.110961 -0.103018 -4.33671e-19)
(0.15644 -0.12425 -2.4444e-20)
(0.200407 -0.132464 -3.10688e-19)
(0.240643 -0.130048 1.65203e-20)
(0.276111 -0.120249 -4.29762e-21)
(0.306427 -0.105887 9.55625e-20)
(0.331568 -0.0890292 1.36794e-20)
(0.351716 -0.0710357 -2.97552e-20)
(0.367179 -0.0526915 -2.49268e-19)
(0.378308 -0.0343886 -5.3786e-20)
(0.385323 -0.0162863 2.35823e-19)
(0.388984 0.00161223 -2.75266e-19)
(0.389501 0.0192581 7.69097e-20)
(0.386563 0.0363984 6.98942e-21)
(0.379715 0.0525945 1.53409e-19)
(0.36842 0.0672122 1.81426e-19)
(0.35216 0.0793788 1.59273e-19)
(0.330609 0.0880387 2.15599e-19)
(0.30377 0.0921184 -1.29616e-19)
(0.272203 0.0907352 3.50606e-20)
(0.237153 0.0836307 4.88247e-20)
(0.200557 0.071427 -2.12919e-19)
(0.164972 0.0556402 -1.73672e-19)
(0.133321 0.0380145 -3.36309e-19)
(0.1086 0.0197746 -1.25065e-19)
(0.0935231 0.00115881 -1.10179e-18)
(0.0889802 -0.017874 4.66975e-19)
(0.0953197 -0.0369259 -5.98776e-19)
(0.110767 -0.0555764 6.07259e-19)
(0.131214 -0.0699912 -4.81058e-19)
(0.150468 -0.0738989 1.14019e-19)
(0.163735 -0.0656084 2.60969e-19)
(0.169131 -0.0489186 -1.98286e-19)
(0.166671 -0.0290057 1.75113e-19)
(0.157229 -0.0120801 -7.74919e-20)
(0.142182 -0.00187969 -3.29851e-19)
(0.12059 0.00244065 -1.07551e-18)
(0.0858637 0.00614357 -8.82103e-19)
(0.0297435 0.0186601 1.21454e-20)
(-0.0609246 0.0507919 -1.00191e-18)
(-0.181361 0.0939345 -1.70878e-19)
(-0.313145 0.138542 4.19282e-19)
(-0.450233 0.181511 4.80799e-19)
(-0.592892 0.217737 9.1769e-20)
(-0.737084 0.244684 -3.34442e-20)
(-0.878962 0.263034 -3.03861e-20)
(-1.017 0.272755 -8.88838e-20)
(-1.14748 0.274444 -6.32421e-20)
(-1.26797 0.269195 -1.55838e-19)
(-1.37683 0.25843 -1.74495e-19)
(-1.47394 0.2437 -3.78822e-20)
(-1.55994 0.226421 2.4437e-20)
(-1.63564 0.208167 -1.20366e-19)
(-1.7029 0.189923 9.0112e-20)
(-1.76287 0.172569 -3.82421e-20)
(-1.8171 0.156613 -1.51482e-19)
(-1.86647 0.142113 1.16046e-20)
(-1.9117 0.129359 1.08217e-19)
(-1.95355 0.118218 -4.14187e-20)
(-1.99262 0.108467 4.55714e-21)
(-2.0294 0.099996 -9.50403e-20)
(-2.06422 0.0926194 3.26221e-20)
(-2.09734 0.0861812 -5.54711e-20)
(-2.12894 0.0805235 9.90137e-22)
(-2.15917 0.0755136 -6.82403e-20)
(-2.18812 0.0710338 2.20449e-21)
(-2.21587 0.0669852 -4.03403e-20)
(-2.24249 0.0632891 5.33796e-20)
(-2.26801 0.0598749 -9.20486e-20)
(-2.29247 0.0566954 1.19781e-20)
(-2.31588 0.0537015 -9.28993e-20)
(-2.33826 0.0508669 3.65566e-21)
(-2.35962 0.0481561 7.32993e-20)
(-2.37997 0.0455551 1.43819e-20)
(-2.39931 0.0430402 -4.29988e-20)
(-2.41763 0.0406017 -6.43189e-20)
(-2.43495 0.0382261 3.68738e-20)
(-2.45125 0.0359044 1.03933e-19)
(-2.46655 0.0336337 -3.2896e-20)
(-2.48084 0.0314042 -1.07527e-21)
(-2.49413 0.0292263 -2.77113e-21)
(-2.50645 0.0270892 6.64258e-20)
(-2.51779 0.0249945 2.32737e-19)
(-2.52815 0.0229507 5.06187e-20)
(-2.5375 0.0209494 9.48685e-20)
(-2.54585 0.0190009 -2.05452e-19)
(-2.55319 0.0170883 -9.86848e-20)
(-2.55953 0.0152217 6.40893e-20)
(-2.56489 0.0133822 1.30161e-19)
(-2.56926 0.0115714 -7.14125e-20)
(-2.57267 0.009769 -2.89944e-20)
(-2.57514 0.00797465 -4.98633e-20)
(-2.57673 0.00618034 7.22699e-20)
(-2.57751 0.00439697 -1.00158e-19)
(-2.57758 0.0026691 -7.51438e-20)
(-2.57706 0.00106364 -4.83367e-20)
(-2.57565 -0.000414853 1.59411e-19)
(-2.57323 -0.00185046 -1.79482e-20)
(-2.5698 -0.00325673 1.11947e-20)
(-2.56535 -0.0046545 5.82142e-20)
(-2.55986 -0.00604012 1.25185e-19)
(-2.55332 -0.0074252 -1.70603e-20)
(-2.5457 -0.00880573 -4.78699e-20)
(-2.53699 -0.0101875 3.80175e-21)
(-2.52715 -0.011571 -8.81864e-20)
(-2.51615 -0.012955 9.54366e-20)
(-2.50398 -0.0143453 3.57014e-20)
(-2.49061 -0.0157352 2.79844e-20)
(-2.476 -0.0171371 6.94611e-20)
(-2.46012 -0.018538 8.32756e-20)
(-2.44293 -0.0199451 -4.33493e-20)
(-2.4244 -0.0213461 2.80464e-20)
(-2.40452 -0.0227592 4.04638e-20)
(-2.38331 -0.024179 4.87036e-20)
(-2.36075 -0.0256187 -5.56315e-21)
(-2.33682 -0.0270468 -2.12065e-21)
(-2.31148 -0.0284722 -3.90216e-20)
(-2.28468 -0.029854 -3.57656e-20)
(-2.25641 -0.0312202 -3.80542e-20)
(-2.22669 -0.0325373 3.68581e-20)
(-2.19551 -0.0338351 -5.13852e-21)
(-2.1629 -0.0350805 -2.12174e-20)
(-2.12888 -0.0362978 -4.28545e-21)
(-2.09347 -0.037456 -2.3371e-20)
(-2.05672 -0.0385716 -2.88435e-20)
(-2.01867 -0.0396217 -1.36943e-20)
(-1.97936 -0.0406184 6.58249e-21)
(-1.93883 -0.0415589 4.53614e-21)
(-1.89714 -0.0424549 4.14545e-21)
(-1.85432 -0.0433067 -3.04644e-21)
(-1.81044 -0.0441084 9.03441e-21)
(-1.76559 -0.0448406 -1.88918e-22)
(-1.71995 -0.0454621 7.11355e-21)
(-1.67354 -0.0459673 -8.32502e-21)
(-1.62641 -0.0463747 1.32862e-20)
(-1.57861 -0.0466772 7.52985e-21)
(-1.53021 -0.0468929 -1.67719e-20)
(-1.4813 -0.0470195 -5.80191e-21)
(-1.43194 -0.0470711 -3.24771e-20)
(-1.3822 -0.047047 -2.14858e-20)
(-1.33212 -0.0469584 4.93679e-20)
(-1.28179 -0.0468085 8.29845e-20)
(-1.23123 -0.0466066 -1.18447e-19)
(-1.18051 -0.0463592 3.73984e-20)
(-1.12965 -0.0460736 7.58283e-21)
(-1.07869 -0.0457587 -2.18903e-19)
(-1.02766 -0.0454192 5.50502e-21)
(-0.97657 -0.0450649 3.53938e-21)
(-0.925432 -0.0446977 -7.55616e-20)
(-0.874253 -0.0443285 9.74759e-20)
(-0.823037 -0.0439597 1.39569e-19)
(-0.771772 -0.0436056 1.47603e-19)
(-0.720444 -0.0432703 1.33138e-19)
(-0.669021 -0.0429685 -2.00813e-19)
(-0.617468 -0.0427023 2.60106e-20)
(-0.565736 -0.0424826 -5.6623e-20)
(-0.513779 -0.042307 1.55624e-19)
(-0.461541 -0.0421796 -4.80484e-20)
(-0.408978 -0.0420955 1.98348e-19)
(-0.356036 -0.0420593 -2.01076e-19)
(-0.302669 -0.0420677 -3.18319e-19)
(-0.248822 -0.042124 -4.95875e-19)
(-0.194447 -0.0422283 -2.38957e-19)
(-0.139495 -0.0423775 -1.1046e-19)
(-0.0839326 -0.0425517 5.43201e-20)
(-0.0277507 -0.0427206 3.39664e-20)
(0.0289366 -0.0428064 -3.98383e-19)
(0.0860852 -0.0427452 -3.67982e-19)
(0.143519 -0.0424357 5.049e-19)
(0.201165 -0.0416528 6.13369e-19)
(0.25692 -0.0399289 5.72003e-19)
(0.31606 -0.0363236 2.86568e-19)
(0.353072 -0.0245961 -6.13664e-19)
(0.000375765 0.0217299 2.82438e-19)
(0.000838138 0.0375492 2.71673e-18)
(0.00648452 0.0309358 2.81392e-18)
(0.0254782 -0.000167928 -1.8899e-18)
(0.0632095 -0.0566138 3.33426e-19)
(0.113079 -0.120586 -1.51141e-19)
(0.165071 -0.172628 -6.10132e-20)
(0.212138 -0.203482 4.58633e-19)
(0.251468 -0.213403 3.55236e-19)
(0.28289 -0.207205 2.92405e-19)
(0.307491 -0.190487 1.30984e-19)
(0.326652 -0.167882 1.23743e-19)
(0.341556 -0.14258 -3.93617e-19)
(0.353058 -0.116505 -2.43991e-19)
(0.361718 -0.0907087 8.76335e-20)
(0.367923 -0.0656935 -1.89876e-19)
(0.371929 -0.0416554 1.85956e-19)
(0.373942 -0.0186648 2.80169e-20)
(0.374158 0.00330444 2.77485e-19)
(0.372913 0.0243834 2.41551e-19)
(0.370463 0.0447348 -2.28409e-19)
(0.367021 0.0643759 -6.14764e-19)
(0.3626 0.0830732 -1.10877e-19)
(0.35693 0.100263 -7.17792e-19)
(0.349439 0.115029 1.61918e-19)
(0.339333 0.126138 2.5623e-19)
(0.325783 0.132182 -1.04813e-19)
(0.308209 0.13187 3.73363e-19)
(0.286738 0.124411 2.11058e-19)
(0.262431 0.109803 5.00226e-19)
(0.237381 0.0888535 -2.7298e-19)
(0.214272 0.0628504 -1.9317e-19)
(0.195824 0.0331451 1.0989e-19)
(0.18349 0.00100561 -1.4815e-19)
(0.177626 -0.03249 -2.07752e-19)
(0.175581 -0.0621549 -1.25611e-20)
(0.169853 -0.0770032 -5.85946e-19)
(0.155909 -0.0719646 1.88003e-19)
(0.134213 -0.0521977 -4.53853e-19)
(0.105686 -0.0249815 -1.58098e-19)
(0.0703609 0.00574487 1.50523e-19)
(0.0259635 0.0361604 -1.74633e-19)
(-0.0381104 0.064686 -3.34926e-19)
(-0.128412 0.101139 6.94124e-19)
(-0.239491 0.149223 5.70741e-19)
(-0.366961 0.203418 -2.93893e-19)
(-0.50487 0.258717 1.07219e-19)
(-0.646219 0.310836 -1.03989e-19)
(-0.784741 0.355124 -1.58347e-19)
(-0.916181 0.390189 -6.82663e-20)
(-1.03698 0.415051 -6.66058e-20)
(-1.1455 0.428573 1.1681e-19)
(-1.24139 0.431373 1.87544e-20)
(-1.32429 0.424465 8.15006e-20)
(-1.39498 0.409236 8.98974e-21)
(-1.45519 0.387562 1.00057e-20)
(-1.50712 0.361657 4.21919e-20)
(-1.55297 0.333702 6.4699e-20)
(-1.59457 0.30535 -1.08312e-20)
(-1.63319 0.277948 2.06595e-19)
(-1.66979 0.252535 1.48328e-19)
(-1.70487 0.229481 3.4205e-20)
(-1.73882 0.208806 7.6317e-20)
(-1.77197 0.190489 -1.7758e-19)
(-1.80442 0.17451 2.62584e-20)
(-1.83612 0.160654 1.02646e-19)
(-1.86703 0.148615 -1.64682e-19)
(-1.89717 0.138122 -7.45979e-20)
(-1.9265 0.12892 5.00859e-20)
(-1.95503 0.120795 3.92025e-20)
(-1.98274 0.113557 -8.31946e-20)
(-2.00963 0.107046 1.43731e-19)
(-2.03569 0.101126 1.67951e-20)
(-2.06091 0.0956861 5.19011e-20)
(-2.08528 0.0906361 -1.70464e-19)
(-2.1088 0.0859017 1.65218e-19)
(-2.13147 0.0814261 3.4749e-20)
(-2.15327 0.0771611 -7.17892e-20)
(-2.1742 0.0730723 -1.30901e-19)
(-2.19424 0.0691282 -6.50632e-20)
(-2.21338 0.0653085 1.04607e-20)
(-2.23162 0.0615932 2.81948e-20)
(-2.24895 0.0579694 -1.33516e-20)
(-2.26536 0.0544246 -9.98645e-20)
(-2.28083 0.0509494 -2.74429e-20)
(-2.29537 0.0475387 -3.04366e-20)
(-2.30896 0.0441875 1.82748e-20)
(-2.32162 0.0408973 -6.3289e-20)
(-2.33335 0.0376636 -9.08694e-20)
(-2.34415 0.03449 -1.11988e-19)
(-2.35402 0.0313782 3.62111e-20)
(-2.36294 0.0283311 -1.32357e-19)
(-2.3709 0.0253446 1.28728e-19)
(-2.37791 0.0224186 1.11235e-20)
(-2.38398 0.0195523 -3.03806e-20)
(-2.38911 0.0167461 -5.65317e-20)
(-2.39333 0.0140022 1.95183e-20)
(-2.39663 0.0113215 9.40186e-20)
(-2.39903 0.00871032 7.7341e-20)
(-2.40056 0.00617249 3.42433e-20)
(-2.4012 0.00371952 4.10548e-20)
(-2.40095 0.00134925 2.04484e-20)
(-2.39978 -0.000968085 1.88822e-20)
(-2.39762 -0.00326966 -2.6099e-19)
(-2.39449 -0.00555624 5.12374e-20)
(-2.39038 -0.00782495 4.63114e-20)
(-2.38527 -0.0100809 -8.99299e-20)
(-2.37914 -0.0123271 7.62951e-20)
(-2.37198 -0.0145691 -2.53497e-20)
(-2.36376 -0.0168078 1.0987e-19)
(-2.35447 -0.0190495 7.98287e-20)
(-2.34407 -0.0212932 5.61401e-20)
(-2.33255 -0.0235445 -3.69738e-20)
(-2.31986 -0.0258012 4.45427e-20)
(-2.306 -0.0280688 2.85848e-20)
(-2.29092 -0.0303452 -3.45439e-20)
(-2.27459 -0.0326299 -5.17161e-20)
(-2.25698 -0.034914 1.61417e-19)
(-2.23806 -0.0372013 2.39809e-20)
(-2.21782 -0.0394984 -5.51825e-20)
(-2.19627 -0.0418103 -1.38504e-19)
(-2.17339 -0.0441339 -1.7517e-20)
(-2.14916 -0.0464503 -1.15996e-21)
(-2.12354 -0.0487397 -4.83512e-20)
(-2.09649 -0.0509842 5.06697e-21)
(-2.06801 -0.0531811 3.80077e-20)
(-2.03811 -0.0553193 -1.03697e-19)
(-2.0068 -0.0574005 3.41744e-20)
(-1.97408 -0.0594112 1.33192e-20)
(-1.94 -0.0613518 5.05603e-20)
(-1.90457 -0.0632031 -1.34862e-20)
(-1.86782 -0.0649658 2.74182e-20)
(-1.82981 -0.0666231 6.43911e-20)
(-1.79057 -0.06817 6.09986e-21)
(-1.75016 -0.0695974 -2.05512e-20)
(-1.70862 -0.0709053 4.62214e-21)
(-1.66602 -0.0720863 2.77051e-21)
(-1.62243 -0.0731561 -2.83603e-21)
(-1.57795 -0.0741264 -5.55916e-22)
(-1.53269 -0.07498 -8.42921e-22)
(-1.48668 -0.0756747 3.22396e-21)
(-1.43998 -0.0762138 -3.50132e-20)
(-1.39265 -0.076594 -5.17533e-21)
(-1.34477 -0.0768313 -5.82609e-21)
(-1.29639 -0.0769303 -1.2095e-20)
(-1.2476 -0.0769056 5.86815e-20)
(-1.19846 -0.0767634 -1.74791e-20)
(-1.14901 -0.0765166 -3.85807e-20)
(-1.09932 -0.0761752 -1.02168e-19)