/*--------------------------------*- C++ -*----------------------------------*\
  =========                 |
  \\      /  F ield         | OpenFOAM: The Open Source CFD Toolbox
   \\    /   O peration     | Website:  https://openfoam.org
    \\  /    A nd           | Version:  13
     \\/     M anipulation  |
\*---------------------------------------------------------------------------*/
FoamFile
{
    format      ascii;
    class       volScalarField;
    location    "300";
    object      k;
}
// * * * * * * * * * * * * * * * * * * * * * * * * * * * * * * * * * * * * * //

dimensions      [0 2 -2 0 0 0 0];

internalField   nonuniform List<scalar> 
12225
(
0.452358
2.12519
2.19168
1.92726
2.00053
1.44802
2.47061
2.16301
1.6189
1.7425
1.46776
1.671
1.39293
1.56329
1.53133
1.43028
1.37422
1.49832
0.326648
0.322569
0.299494
0.359058
0.37885
0.367435
0.384363
0.380125
0.391342
0.438415
0.488412
0.543429
0.558844
0.579061
0.606014
0.684357
0.721858
0.793233
0.378475
0.261149
0.144726
0.0952944
0.0728601
0.0541937
0.0551965
0.0554251
0.0578748
0.0651125
0.07566
0.0858045
0.092202
0.106693
0.122683
0.150802
0.169359
0.19558
0.376595
0.315362
0.208354
0.118867
0.0667909
0.0458527
0.0393508
0.0372545
0.0375237
0.0379077
0.0475554
0.0589812
0.0803186
0.0812319
0.080907
0.0888171
0.0974888
0.102442
0.37043
0.326364
0.263426
0.21061
0.170726
0.14737
0.129883
0.12261
0.120953
0.120127
0.111986
0.119773
0.117702
0.125001
0.122739
0.130362
0.135641
0.136745
0.387451
0.336343
0.303322
0.297455
0.280601
0.255884
0.24482
0.227535
0.226585
0.214977
0.213952
0.216605
0.216455
0.215475
0.211286
0.209234
0.207781
0.206836
0.381457
0.353594
0.33381
0.321651
0.308549
0.294976
0.289459
0.28646
0.289519
0.289619
0.288617
0.285554
0.28327
0.281766
0.279453
0.277833
0.276092
0.272437
0.375667
0.365423
0.358509
0.351248
0.344809
0.339226
0.335016
0.332095
0.329547
0.32744
0.325017
0.322479
0.320531
0.317945
0.316162
0.312608
0.310033
0.305346
0.373844
0.370059
0.365735
0.361921
0.358266
0.354706
0.351513
0.348731
0.346214
0.34407
0.342284
0.339954
0.338218
0.335715
0.333679
0.330465
0.3279
0.324101
0.373942
0.371196
0.368271
0.365661
0.363106
0.36056
0.358126
0.355815
0.353767
0.351794
0.350184
0.34826
0.346636
0.344558
0.342688
0.340134
0.338034
0.335184
0.373915
0.371508
0.369156
0.36695
0.364851
0.36277
0.360762
0.358813
0.357031
0.355305
0.35375
0.352111
0.350603
0.348869
0.34726
0.345311
0.34362
0.341545
0.373857
0.371548
0.369357
0.367288
0.36532
0.363418
0.361598
0.35983
0.358184
0.356577
0.35509
0.353593
0.352182
0.350669
0.349246
0.347666
0.346253
0.344645
0.373837
0.371559
0.369402
0.367363
0.365432
0.363586
0.361834
0.360147
0.358558
0.357025
0.355583
0.354168
0.352823
0.351461
0.350168
0.348828
0.347592
0.346285
0.37383
0.371558
0.369406
0.367367
0.365438
0.363602
0.361863
0.360201
0.358627
0.357121
0.355694
0.354319
0.35301
0.351732
0.350515
0.349314
0.348181
0.347054
0.373827
0.371554
0.369401
0.36736
0.365425
0.363587
0.361844
0.360184
0.358608
0.357105
0.355677
0.354312
0.353012
0.351765
0.350575
0.349431
0.348341
0.347291
0.373826
0.371552
0.369396
0.367352
0.365413
0.363572
0.361824
0.360162
0.358581
0.357076
0.355643
0.354277
0.352976
0.351734
0.35055
0.349419
0.348339
0.347308
0.373826
0.37155
0.369393
0.367346
0.365405
0.363561
0.36181
0.360144
0.35856
0.357053
0.355617
0.354249
0.352945
0.351702
0.350516
0.349385
0.348305
0.347275
0.373825
0.371549
0.369391
0.367343
0.3654
0.363554
0.361801
0.360134
0.358548
0.357038
0.355601
0.354231
0.352925
0.351681
0.350493
0.34936
0.348279
0.347247
0.373825
0.371549
0.369391
0.367343
0.365399
0.363553
0.361798
0.360131
0.358544
0.357034
0.355596
0.354226
0.352919
0.351674
0.350486
0.349352
0.348269
0.347236
0.373825
0.371551
0.369392
0.367346
0.365402
0.363557
0.361804
0.360138
0.358553
0.357044
0.355606
0.354236
0.35293
0.351683
0.350494
0.349358
0.348274
0.347238
0.373825
0.371553
0.369396
0.367351
0.36541
0.363567
0.361816
0.360153
0.358569
0.357059
0.355617
0.354238
0.352917
0.351655
0.350445
0.349292
0.348187
0.347138
0.373823
0.371558
0.369399
0.367362
0.36542
0.363585
0.361836
0.360177
0.358577
0.357038
0.355532
0.354075
0.352647
0.351276
0.349942
0.348683
0.347469
0.346345
0.373816
0.371573
0.3694
0.367383
0.365434
0.363611
0.36185
0.360152
0.358421
0.356665
0.354833
0.352983
0.351111
0.349285
0.347501
0.345848
0.344267
0.342874
0.373799
0.371607
0.369403
0.367412
0.36544
0.363559
0.361707
0.359708
0.357406
0.354765
0.351835
0.348675
0.345503
0.342312
0.339297
0.336555
0.333985
0.331874
0.373778
0.371673
0.369416
0.367397
0.365249
0.363032
0.360905
0.357825
0.353886
0.348537
0.342668
0.335653
0.329111
0.322302
0.316228
0.31081
0.305611
0.301744
0.373767
0.371872
0.3695
0.367135
0.364408
0.361332
0.358424
0.353003
0.345128
0.332749
0.319124
0.302568
0.287187
0.271462
0.257739
0.246151
0.234917
0.227565
0.373934
0.373015
0.370137
0.366742
0.362659
0.358385
0.353728
0.345146
0.326155
0.299309
0.264414
0.227045
0.189204
0.157327
0.128999
0.109204
0.0959754
0.0872572
0.377307
0.377934
0.375754
0.371588
0.366695
0.360743
0.35435
0.343453
0.315658
0.286058
0.246145
0.195144
0.170394
0.146237
0.131644
0.129744
0.131349
0.130697
0.40581
0.426273
0.447363
0.465826
0.479809
0.48838
0.498129
0.505069
0.512925
0.516473
0.528658
0.524651
0.51439
0.526561
0.523308
0.541067
0.547291
0.53852
1.00318
1.28333
1.46283
1.55793
1.60133
1.59624
1.58086
1.54672
1.5072
1.46586
1.42572
1.3867
1.34946
1.31517
1.28359
1.25488
1.22922
1.20518
1.58772e-08
3.92876e-07
2.01443e-06
7.97693e-06
2.689e-05
8.25068e-05
0.000219611
0.000444029
0.000729104
0.00103421
0.00131148
0.00153198
0.0016813
0.0017516
0.00174019
0.00167223
0.00156065
0.00138407
0.00117187
0.00100149
0.000846076
0.000698081
0.000554504
0.000421004
0.000298342
0.000194856
0.000117191
6.5983e-05
3.61684e-05
2.0285e-05
1.21602e-05
8.06997e-06
6.3203e-06
7.39563e-06
1.01198e-05
3.57905e-05
7.59309e-05
0.000219396
0.000486614
0.000775456
0.000895991
0.000835057
0.000689482
0.000581401
0.000599256
0.000734633
0.000964409
0.00162011
0.0028732
0.00720609
0.0220134
0.054836
0.0904563
0.105775
0.112618
0.128491
0.139425
0.13867
0.152465
0.172996
0.144798
0.152603
0.160208
0.173894
0.182506
0.192604
0.200905
0.209975
0.218183
0.22664
0.234653
0.242729
0.250545
0.258361
0.266005
0.273624
0.281115
0.288571
0.295923
0.303233
0.310447
0.317613
0.324684
0.3317
0.338613
0.34546
0.352197
0.358858
0.365405
0.371862
0.378203
0.384418
0.3905
0.396433
0.402213
0.407823
0.413262
0.418517
0.423598
0.428508
0.433287
0.437982
0.442516
0.446874
0.451054
0.455049
0.45885
0.462458
0.46586
0.469064
0.472053
0.474838
0.477402
0.479756
0.481889
0.483807
0.485503
0.486984
0.488245
0.489297
0.490142
0.490797
0.491275
0.491603
0.49183
0.492028
0.49228
0.491159
0.49118
0.48958
0.489192
0.486977
0.486056
0.484267
0.482594
0.480714
0.478668
0.476476
0.474135
0.471651
0.469031
0.466282
0.463414
0.460433
0.457341
0.454136
0.450841
0.447439
0.443961
0.440395
0.436767
0.433069
0.42933
0.425544
0.421727
0.417889
0.41404
0.410194
0.406357
0.402539
0.398753
0.394996
0.391284
0.387623
0.384024
0.380493
0.377043
0.373683
0.37042
0.367261
0.36421
0.361261
0.358403
0.355595
0.352805
0.349917
0.346849
0.343312
0.338871
0.323979
8.01885e-08
2.27364e-06
1.53491e-05
6.57452e-05
0.000243437
0.000694966
0.00164553
0.00303127
0.00466641
0.00636587
0.00793043
0.00923306
0.0101924
0.0108329
0.0111199
0.0110791
0.0109616
0.0106411
0.0101489
0.00945369
0.00854384
0.00746878
0.0062501
0.00500287
0.00372236
0.00262031
0.00177643
0.00116966
0.000758703
0.000490544
0.000324158
0.000226165
0.000177347
0.000158594
0.00014192
0.000488877
0.000925624
0.0025392
0.00533149
0.00805523
0.0098112
0.00993776
0.00970585
0.00979805
0.0112265
0.0157905
0.0223358
0.033085
0.0512416
0.0785682
0.103724
0.129122
0.148854
0.164871
0.180468
0.198384
0.215327
0.234844
0.25433
0.274159
0.29277
0.31426
0.335262
0.35683
0.37706
0.397438
0.417131
0.436686
0.455801
0.474716
0.493358
0.51182
0.530099
0.548245
0.566259
0.584173
0.601984
0.619717
0.637364
0.654941
0.672437
0.689865
0.707209
0.724482
0.741662
0.758763
0.775765
0.792681
0.809494
0.826213
0.842816
0.859288
0.875604
0.891751
0.907704
0.923443
0.938938
0.954158
0.969066
0.983618
0.997774
1.01149
1.02491
1.03802
1.05081
1.06326
1.07534
1.08705
1.09835
1.10925
1.11971
1.12973
1.13928
1.14836
1.15696
1.16506
1.17265
1.17972
1.18628
1.19231
1.19782
1.20281
1.2073
1.21129
1.2148
1.21783
1.22037
1.22241
1.22421
1.22538
1.22567
1.22561
1.22493
1.22455
1.22378
1.22254
1.22085
1.21872
1.21615
1.21315
1.20975
1.20594
1.20174
1.19718
1.19223
1.18695
1.1813
1.17533
1.16902
1.16243
1.15554
1.1484
1.14101
1.13341
1.12562
1.11766
1.10956
1.10134
1.09304
1.08467
1.07626
1.06782
1.05938
1.05096
1.04258
1.03426
1.02604
1.01793
1.00996
1.00214
0.994496
0.987017
0.979694
0.972489
0.96535
0.958129
0.950657
0.942647
0.932332
0.907482
1.97292e-07
5.86346e-06
4.4419e-05
0.000203185
0.000751598
0.00186525
0.00388713
0.00627366
0.00869198
0.0109077
0.0127707
0.0142209
0.0152545
0.0159095
0.0162521
0.0162528
0.0161572
0.0158703
0.0154286
0.0148595
0.0141605
0.0133294
0.0123485
0.0112035
0.0099353
0.00848068
0.00690065
0.00534736
0.0039681
0.00281588
0.00199023
0.00146185
0.00115562
0.00100872
0.000981859
0.00251328
0.00520067
0.0117907
0.0189807
0.0248005
0.028613
0.0304522
0.0333568
0.0408357
0.0567318
0.0765888
0.0965905
0.119258
0.142604
0.164148
0.187187
0.210065
0.233598
0.258789
0.286486
0.316281
0.346613
0.377585
0.408113
0.438688
0.468779
0.49855
0.527669
0.555918
0.583421
0.610288
0.63654
0.6623
0.687608
0.712561
0.737198
0.76158
0.78574
0.809713
0.833519
0.857178
0.8807
0.904095
0.927365
0.950514
0.973539
0.99644
1.01921
1.04186
1.06436
1.08673
1.10894
1.13102
1.15294
1.17471
1.19632
1.21776
1.239
1.26003
1.28085
1.30145
1.32179
1.34189
1.36172
1.38126
1.4005
1.41942
1.43797
1.45614
1.47388
1.49118
1.508
1.52431
1.5401
1.55533
1.56999
1.58404
1.59748
1.61027
1.62239
1.63384
1.6446
1.65466
1.66401
1.67265
1.68057
1.68779
1.69431
1.70015
1.70529
1.70976
1.71354
1.71664
1.71909
1.7208
1.72165
1.72196
1.72203
1.72161
1.72035
1.71847
1.71598
1.71288
1.7092
1.70493
1.70009
1.69471
1.68879
1.68235
1.6754
1.66797
1.66005
1.65168
1.64285
1.63362
1.62397
1.61398
1.60363
1.59299
1.58207
1.57091
1.55955
1.54801
1.53633
1.52454
1.51268
1.50077
1.48884
1.47692
1.46504
1.45323
1.44152
1.42996
1.41856
1.40737
1.3964
1.38568
1.37519
1.36494
1.35488
1.34491
1.33483
1.32441
1.31186
1.28899
7.31652e-07
2.20205e-05
0.000171481
0.000697574
0.00211093
0.00498427
0.00854817
0.0120544
0.0151344
0.0176166
0.0194627
0.0207081
0.0214172
0.0217068
0.0216664
0.0214517
0.0210136
0.0204387
0.0197721
0.0190368
0.0182362
0.0173722
0.0164332
0.0154019
0.0142611
0.01299
0.0115783
0.0100651
0.00852267
0.00708196
0.00575315
0.00471736
0.00377767
0.00397235
0.00580939
0.0120863
0.0243425
0.0367915
0.0471656
0.0555408
0.0638924
0.0748379
0.0893676
0.106603
0.124387
0.14234
0.161671
0.184274
0.208336
0.234165
0.262581
0.292633
0.324792
0.358638
0.393862
0.42979
0.46585
0.501811
0.537378
0.57248
0.606967
0.640795
0.673957
0.706345
0.7381
0.769257
0.79989
0.830073
0.85987
0.889343
0.91854
0.947504
0.976267
1.00485
1.03328
1.06156
1.0897
1.1177
1.14555
1.17327
1.20084
1.22826
1.25551
1.28261
1.30953
1.33627
1.36283
1.38921
1.4154
1.4414
1.46721
1.49282
1.5182
1.54337
1.56829
1.59297
1.61739
1.64153
1.66538
1.68891
1.71209
1.73489
1.75727
1.77918
1.80061
1.82151
1.84184
1.86158
1.88069
1.89914
1.9169
1.93394
1.95024
1.96576
1.9805
1.99441
2.0075
2.01974
2.03112
2.04165
2.05132
2.06014
2.06811
2.07523
2.08153
2.087
2.09163
2.09545
2.09843
2.10058
2.1018
2.10229
2.10238
2.10174
2.10016
2.09783
2.09477
2.09097
2.08646
2.08124
2.07534
2.06876
2.06154
2.05368
2.04521
2.03614
2.02648
2.01626
2.0055
1.99423
1.98246
1.97025
1.95762
1.9446
1.93125
1.91758
1.90366
1.8895
1.87516
1.86068
1.84608
1.83141
1.81669
1.80197
1.78728
1.77265
1.75813
1.74376
1.72958
1.71562
1.70193
1.68852
1.67541
1.66261
1.6501
1.63783
1.62567
1.61343
1.59954
1.57861
2.43101e-06
7.28484e-05
0.000543571
0.00210343
0.00581862
0.0110789
0.0160786
0.020189
0.0232317
0.0252627
0.0264469
0.0269783
0.026988
0.0267665
0.0262518
0.0255572
0.0247659
0.0239179
0.0230398
0.0221475
0.0212434
0.0203239
0.0193783
0.0183916
0.017342
0.0162042
0.0149599
0.0136157
0.0122134
0.010832
0.0093893
0.00854432
0.00940276
0.0139684
0.0257199
0.0431423
0.0605616
0.0758208
0.0887104
0.100408
0.112225
0.124946
0.138888
0.154149
0.171646
0.192487
0.216598
0.24364
0.273395
0.305323
0.339274
0.374666
0.411356
0.448919
0.487062
0.525456
0.563858
0.602125
0.640131
0.677764
0.714964
0.751679
0.787891
0.823571
0.858772
0.89353
0.927895
0.961916
0.995641
1.02912
1.06238
1.09546
1.12838
1.16115
1.1938
1.22631
1.25869
1.29094
1.32305
1.355
1.3868
1.41842
1.44987
1.48112
1.51217
1.54301
1.57364
1.60405
1.63423
1.66419
1.69392
1.72341
1.75265
1.78163
1.81034
1.83877
1.86689
1.89469
1.92214
1.94922
1.9759
2.00213
2.02787
2.0531
2.07778
2.10186
2.1253
2.14807
2.17014
2.19145
2.21199
2.23171
2.25058
2.26857
2.28565
2.30181
2.31701
2.33124
2.34449
2.35676
2.36803
2.37832
2.38764
2.39597
2.40335
2.40975
2.41521
2.41971
2.42325
2.42584
2.42742
2.42808
2.42816
2.42736
2.42556
2.42288
2.41935
2.41497
2.40977
2.40375
2.39693
2.38934
2.38099
2.3719
2.3621
2.3516
2.34043
2.3286
2.31614
2.30307
2.28944
2.27527
2.26061
2.2455
2.22998
2.21408
2.19787
2.18137
2.16464
2.14771
2.13064
2.11346
2.09621
2.07893
2.06165
2.04443
2.02731
2.01033
1.99354
1.97699
1.96072
1.94475
1.92914
1.91388
1.89901
1.88451
1.87031
1.85626
1.84104
1.82075
7.57023e-06
0.000222416
0.00159609
0.00568523
0.0132277
0.0201272
0.0252744
0.0286654
0.0306388
0.0315965
0.0318468
0.0316624
0.0311306
0.0303282
0.0293885
0.028373
0.027328
0.0262859
0.0252654
0.0242754
0.0233134
0.0223719
0.0214357
0.0204825
0.0194887
0.0184188
0.0172376
0.0159362
0.0146102
0.0139364
0.0145531
0.018029
0.0273221
0.0444263
0.0654502
0.0857296
0.103204
0.117036
0.128025
0.137868
0.148257
0.16021
0.175388
0.194262
0.216737
0.242895
0.272317
0.304263
0.338178
0.373545
0.410116
0.447595
0.48581
0.524572
0.563739
0.603172
0.642756
0.682403
0.722025
0.761527
0.800845
0.839924
0.878733
0.917254
0.955494
0.993471
1.03121
1.06874
1.10609
1.14329
1.18037
1.21734
1.25422
1.29102
1.32772
1.36434
1.40085
1.43724
1.4735
1.50961
1.54556
1.58133
1.61689
1.65224
1.68737
1.72225
1.75688
1.79125
1.82536
1.85921
1.89278
1.92607
1.95907
1.99177
2.02415
2.05621
2.0879
2.11923
2.15016
2.18066
2.2107
2.24024
2.26924
2.29768
2.32549
2.35266
2.37912
2.40485
2.42979
2.4539
2.47715
2.49949
2.52089
2.54131
2.56072
2.57908
2.59638
2.61259
2.62769
2.64168
2.65456
2.66632
2.67697
2.68651
2.69496
2.70231
2.70858
2.71377
2.71789
2.72093
2.72287
2.72371
2.7238
2.7229
2.72091
2.71793
2.71398
2.70908
2.70324
2.69648
2.68882
2.68028
2.67088
2.66065
2.6496
2.63776
2.62516
2.61181
2.59774
2.58299
2.56758
2.55157
2.53498
2.51787
2.50028
2.48226
2.46386
2.44511
2.42608
2.40681
2.38735
2.36773
2.34802
2.32823
2.30843
2.28866
2.26896
2.2494
2.23002
2.21087
2.192
2.17346
2.1553
2.13754
2.12023
2.10341
2.08703
2.07099
2.05417
2.03347
2.34917e-05
0.000653406
0.00430045
0.0135197
0.0229896
0.0294384
0.0332687
0.0353153
0.0362008
0.0363072
0.0359574
0.0351696
0.0341218
0.0329273
0.0316628
0.0303873
0.0291418
0.0279528
0.0268322
0.025782
0.0247944
0.0238563
0.0229452
0.0220291
0.0210805
0.0201641
0.0194407
0.0191989
0.019967
0.0232337
0.0310006
0.0457432
0.0657126
0.0868956
0.107202
0.124143
0.136894
0.146464
0.15482
0.163899
0.176093
0.192151
0.212197
0.236182
0.263743
0.294317
0.327122
0.361487
0.397015
0.433459
0.470683
0.508579
0.54708
0.586131
0.625677
0.665662
0.706021
0.746683
0.787564
0.828588
0.86969
0.910814
0.951915
0.992966
1.03395
1.07487
1.11573
1.15654
1.19732
1.23809
1.27885
1.3196
1.36036
1.40112
1.44185
1.48255
1.52319
1.56375
1.60419
1.64449
1.68463
1.72458
1.76432
1.80382
1.84306
1.88203
1.92071
1.95909
1.99716
2.03492
2.07237
2.10948
2.14625
2.18268
2.21873
2.2544
2.28967
2.32452
2.35892
2.39283
2.42624
2.45909
2.49136
2.523
2.55398
2.58423
2.61373
2.64242
2.67026
2.69719
2.72318
2.74816
2.77212
2.79499
2.81674
2.83734
2.85676
2.87496
2.89194
2.90768
2.92217
2.93541
2.94741
2.95817
2.9677
2.976
2.98309
2.98897
2.99365
2.99715
2.99944
3.00048
3.0006
2.9996
2.99744
2.99417
2.98982
2.98441
2.97795
2.97047
2.96198
2.95251
2.94208
2.93072
2.91845
2.9053
2.89129
2.87645
2.8608
2.84438
2.82723
2.8094
2.79092
2.77184
2.75222
2.7321
2.71152
2.69056
2.66924
2.64763
2.62578
2.60373
2.58154
2.55923
2.53688
2.51452
2.49221
2.47001
2.44797
2.42615
2.40461
2.38341
2.36259
2.34221
2.32234
2.30302
2.28426
2.26599
2.24722
2.22534
6.90449e-05
0.00177976
0.0101299
0.0234119
0.032138
0.0370503
0.0396122
0.0407111
0.0408361
0.0403666
0.0393705
0.0380694
0.0365937
0.0350425
0.0334923
0.0319991
0.0305994
0.0293132
0.0281468
0.0270992
0.026164
0.0253386
0.0246321
0.0240533
0.0237494
0.0239572
0.0251875
0.0284349
0.0352135
0.0476259
0.0647986
0.0841317
0.103993
0.122335
0.137546
0.148971
0.157553
0.165589
0.175324
0.188343
0.205302
0.226339
0.251154
0.279263
0.309993
0.342635
0.376572
0.411441
0.44708
0.483422
0.520442
0.55813
0.596487
0.635515
0.675206
0.715533
0.756444
0.797885
0.839791
0.882097
0.924739
0.967657
1.0108
1.05414
1.09764
1.14129
1.18509
1.22902
1.2731
1.31732
1.36169
1.40619
1.45081
1.49553
1.54033
1.58517
1.63
1.6748
1.71952
1.76412
1.80855
1.85279
1.89681
1.94057
1.98404
2.02719
2.07002
2.11251
2.15463
2.1964
2.23779
2.27879
2.31941
2.35961
2.3994
2.43874
2.47763
2.51604
2.55395
2.59133
2.62814
2.66435
2.69992
2.73481
2.76896
2.80235
2.83491
2.8666
2.89735
2.92713
2.95587
2.98353
3.01005
3.03539
3.0595
3.08235
3.1039
3.12411
3.14296
3.16044
3.17655
3.19127
3.20461
3.21657
3.22717
3.2364
3.24429
3.25083
3.25606
3.25997
3.26258
3.26381
3.26395
3.26286
3.2605
3.25692
3.25215
3.2462
3.23911
3.23089
3.22157
3.21116
3.1997
3.1872
3.1737
3.15923
3.14381
3.12747
3.11024
3.09216
3.07326
3.05361
3.03323
3.01219
2.99053
2.96831
2.94556
2.92236
2.89875
2.87478
2.85052
2.826
2.80129
2.77642
2.75145
2.72644
2.70144
2.67653
2.65175
2.62717
2.60286
2.57888
2.55529
2.53216
2.50956
2.48758
2.46622
2.44546
2.4244
2.40076
0.000178598
0.00422055
0.0191362
0.0325571
0.0398734
0.0435979
0.0452622
0.0456243
0.0451532
0.0440416
0.0425164
0.0407539
0.0388858
0.0370186
0.0352327
0.0335853
0.0321128
0.0308362
0.0297659
0.0289142
0.0282846
0.0279654
0.0280208
0.0286432
0.0302501
0.0335396
0.03983
0.0500073
0.0638557
0.080063
0.0976022
0.11497
0.130831
0.144153
0.154808
0.163744
0.17268
0.183524
0.197523
0.215335
0.236928
0.261959
0.289876
0.320067
0.351898
0.384852
0.418608
0.453041
0.48813
0.523899
0.560386
0.597629
0.635669
0.674535
0.714231
0.754743
0.796046
0.8381
0.880855
0.924253
0.968238
1.01275
1.05775
1.10319
1.14903
1.19526
1.24186
1.28881
1.3361
1.38373
1.43168
1.47992
1.52843
1.57718
1.62611
1.67517
1.72431
1.77347
1.82259
1.87161
1.92047
1.96914
2.01757
2.06572
2.11355
2.16102
2.20812
2.25483
2.30112
2.34699
2.39244
2.43743
2.48198
2.52605
2.56964
2.61272
2.65529
2.69733
2.7388
2.77968
2.81994
2.85953
2.89842
2.93657
2.97392
3.01044
3.04606
3.08074
3.11441
3.14702
3.1785
3.20881
3.23788
3.26566
3.29211
3.31718
3.34082
3.363
3.38369
3.40288
3.42055
3.4367
3.45133
3.46444
3.47605
3.48615
3.49478
3.50193
3.50763
3.51191
3.51476
3.51613
3.51624
3.51501
3.5124
3.50846
3.50323
3.49671
3.48895
3.47995
3.46976
3.45838
3.44585
3.4322
3.41745
3.40163
3.38479
3.36693
3.3481
3.32833
3.30769
3.2862
3.26392
3.24091
3.2172
3.19286
3.16794
3.14248
3.11656
3.09021
3.0635
3.03648
3.0092
2.98171
2.95408
2.92635
2.89861
2.87091
2.84331
2.81589
2.78871
2.76185
2.73537
2.70936
2.68389
2.65906
2.63491
2.61144
2.58781
2.56195
0.000400067
0.00860819
0.0285747
0.0408419
0.0469011
0.0497498
0.0507194
0.050476
0.0493992
0.0477388
0.0457247
0.0435379
0.0413295
0.0392214
0.0373044
0.0356428
0.0342833
0.0332603
0.0326041
0.0323797
0.0326142
0.0335103
0.0354086
0.0389234
0.0446497
0.0530364
0.0639747
0.0770617
0.0916543
0.106848
0.12168
0.135256
0.147139
0.157493
0.167083
0.177197
0.189227
0.204237
0.22264
0.244392
0.269118
0.29633
0.325492
0.356097
0.387719
0.420081
0.453064
0.486666
0.520936
0.555943
0.59176
0.628456
0.666087
0.704687
0.744278
0.784868
0.826447
0.868989
0.912459
0.956811
1.002
1.04797
1.09468
1.1421
1.19018
1.23889
1.28822
1.33814
1.38863
1.43966
1.49121
1.54324
1.5957
1.64855
1.70171
1.75512
1.80869
1.86234
1.91599
1.96956
2.02299
2.07621
2.12918
2.18185
2.23416
2.28608
2.33757
2.38861
2.43917
2.48926
2.53885
2.58794
2.63649
2.68451
2.73197
2.77886
2.82517
2.87086
2.91592
2.96032
3.00404
3.04701
3.08922
3.13061
3.17113
3.21074
3.24938
3.287
3.32352
3.3589
3.39305
3.42593
3.45746
3.48761
3.5163
3.54349
3.56913
3.59318
3.61562
3.6364
3.65554
3.67301
3.68882
3.70298
3.71549
3.72636
3.73562
3.74327
3.74936
3.75388
3.75687
3.75829
3.7583
3.75684
3.7539
3.74953
3.74375
3.73659
3.72809
3.71826
3.70714
3.69475
3.68111
3.66626
3.65022
3.63303
3.61472
3.59531
3.57486
3.55339
3.53097
3.50764
3.48345
3.45845
3.43269
3.40623
3.37911
3.3514
3.32313
3.29439
3.26521
3.23565
3.20577
3.17562
3.14528
3.1148
3.08425
3.0537
3.02322
2.99288
2.96276
2.93292
2.90346
2.87445
2.84599
2.81818
2.79107
2.7647
2.73829
2.71003
0.000777068
0.0151546
0.0371357
0.0482789
0.0535668
0.0558302
0.0562759
0.0555085
0.0539073
0.0517668
0.0493321
0.0468148
0.0443932
0.0422115
0.0403803
0.0389865
0.0381248
0.0378705
0.0381918
0.0392502
0.0413006
0.044663
0.0496499
0.0564631
0.0651582
0.0755779
0.0873605
0.100025
0.11296
0.125557
0.137392
0.148348
0.158659
0.168949
0.180181
0.193337
0.20912
0.227822
0.249349
0.273389
0.299525
0.327337
0.356429
0.386474
0.417237
0.448605
0.480566
0.513176
0.54652
0.580694
0.615789
0.651885
0.689044
0.72732
0.76675
0.807356
0.849143
0.892102
0.936213
0.981446
1.02776
1.07513
1.12351
1.17286
1.22314
1.27434
1.32641
1.37932
1.43305
1.48755
1.54278
1.59869
1.65521
1.71227
1.76978
1.82764
1.88576
1.94401
2.00231
2.06054
2.11864
2.17651
2.23412
2.29139
2.34827
2.40471
2.46067
2.51612
2.57104
2.62541
2.67922
2.73245
2.78508
2.83708
2.88845
2.93917
2.98921
3.03856
3.0872
3.13509
3.18222
3.22852
3.27398
3.31853
3.36213
3.40473
3.44627
3.4867
3.52595
3.56395
3.60063
3.63592
3.66976
3.70209
3.73286
3.762
3.78946
3.81521
3.8392
3.86141
3.88183
3.90044
3.91726
3.93229
3.94553
3.957
3.96673
3.97473
3.98102
3.98565
3.98862
3.98996
3.98974
3.98794
3.98455
3.97963
3.97321
3.96532
3.95599
3.94525
3.93314
3.91967
3.90487
3.88877
3.8714
3.8528
3.83299
3.81201
3.7899
3.76672
3.74251
3.71733
3.69123
3.66424
3.63643
3.60785
3.57855
3.54857
3.51798
3.48683
3.45518
3.42307
3.39058
3.35776
3.32468
3.29143
3.25805
3.22463
3.19124
3.15794
3.12482
3.09195
3.05943
3.02734
2.99579
2.96489
2.9347
2.9053
2.87594
2.84499
0.00128558
0.0224508
0.0450683
0.055675
0.0604733
0.0622277
0.0622345
0.0610057
0.0589682
0.0564515
0.0537396
0.0510807
0.0486848
0.0467312
0.0453529
0.0447597
0.044829
0.0458029
0.0476498
0.0505789
0.0547489
0.0602754
0.0671944
0.0754345
0.0848256
0.0951111
0.105939
0.116951
0.127856
0.138512
0.148946
0.15941
0.170404
0.182596
0.19661
0.21288
0.231562
0.252563
0.27563
0.300446
0.326689
0.354073
0.382353
0.411353
0.44097
0.471182
0.502032
0.533607
0.566012
0.599353
0.633726
0.669222
0.705919
0.743881
0.783159
0.823791
0.865797
0.909184
0.953952
1.00009
1.04757
1.09638
1.14647
1.19783
1.25041
1.30418
1.35911
1.41515
1.47225
1.53037
1.58943
1.64938
1.71012
1.77154
1.83353
1.89597
1.95874
2.02169
2.0847
2.14766
2.21046
2.27302
2.33527
2.39716
2.45861
2.51956
2.57998
2.63983
2.69908
2.75773
2.81574
2.87309
2.92976
2.98572
3.04096
3.09544
3.14915
3.20208
3.2542
3.30548
3.35589
3.40539
3.45394
3.50149
3.54799
3.59338
3.63762
3.68065
3.72239
3.76277
3.80172
3.83917
3.87505
3.90931
3.94187
3.97269
4.0017
4.02886
4.05413
4.07749
4.09893
4.11843
4.136
4.15164
4.16537
4.1772
4.18716
4.19528
4.20158
4.20609
4.20886
4.20989
4.20929
4.207
4.20301
4.1974
4.19021
4.18147
4.17121
4.15947
4.14627
4.13165
4.11563
4.09824
4.07951
4.05945
4.03811
4.01553
3.99176
3.96686
3.94087
3.91386
3.88585
3.8569
3.82706
3.79639
3.76493
3.73273
3.69984
3.66631
3.63221
3.59758
3.56249
3.52702
3.49124
3.45523
3.41904
3.38276
3.34646
3.3102
3.27407
3.23815
3.20254
3.16733
3.13264
3.09859
3.06525
3.03273
3.00032
2.96659
0.0019064
0.0292268
0.0524799
0.0629939
0.0675687
0.0690311
0.0686906
0.0670944
0.0647339
0.0620045
0.0592393
0.0567229
0.0546841
0.0533618
0.0529076
0.0532532
0.054563
0.0568408
0.0601367
0.0644948
0.0699384
0.0764319
0.0838781
0.0921204
0.100986
0.110298
0.119892
0.129676
0.139637
0.149873
0.16062
0.17224
0.185151
0.199715
0.216161
0.23455
0.254792
0.276699
0.300041
0.324591
0.350148
0.376546
0.403664
0.431427
0.459814
0.488857
0.518632
0.549237
0.58078
0.613375
0.647124
0.682128
0.718474
0.756242
0.795496
0.836283
0.878638
0.922591
0.968158
1.01535
1.06415
1.11456
1.16657
1.22014
1.27525
1.33187
1.38994
1.44941
1.51021
1.57226
1.63546
1.69972
1.76491
1.8309
1.89753
1.96464
2.03209
2.09974
2.16743
2.23503
2.30244
2.36958
2.43637
2.50274
2.5686
2.63391
2.69862
2.76271
2.82615
2.88892
2.95097
3.01229
3.07283
3.13257
3.19149
3.24955
3.30673
3.36302
3.4184
3.47283
3.52628
3.57872
3.63008
3.68034
3.72942
3.7773
3.8239
3.86918
3.91305
3.95546
3.99631
4.03554
4.07307
4.10886
4.14283
4.17492
4.20509
4.23328
4.25946
4.2836
4.30568
4.3257
4.34367
4.35959
4.37348
4.38536
4.39525
4.4032
4.40922
4.41337
4.41568
4.41618
4.415
4.412
4.40722
4.40075
4.39264
4.38291
4.3716
4.35874
4.34437
4.32852
4.31122
4.29249
4.27235
4.25082
4.22793
4.20374
4.17832
4.15172
4.12398
4.09516
4.0653
4.03443
4.00262
3.96991
3.93636
3.902
3.86688
3.83105
3.79455
3.75746
3.71985
3.6818
3.64339
3.60468
3.56575
3.52667
3.48751
3.44834
3.40924
3.37029
3.33161
3.2933
3.25548
3.21827
3.18176
3.14608
3.11059
3.07409
0.00272674
0.0351762
0.0599846
0.0706522
0.0750701
0.0762891
0.075613
0.0736843
0.071097
0.0683298
0.0657648
0.0636997
0.0623881
0.0619463
0.0623214
0.0636992
0.0660374
0.0692914
0.0734456
0.0784739
0.0843155
0.0908909
0.0981033
0.105863
0.114108
0.122802
0.131943
0.141579
0.151832
0.162892
0.174986
0.188339
0.203133
0.219466
0.237337
0.256665
0.277314
0.299129
0.321962
0.345682
0.370187
0.395408
0.421306
0.447879
0.475156
0.503199
0.532099
0.561963
0.592899
0.62501
0.658404
0.693187
0.729455
0.767298
0.806792
0.848004
0.890995
0.935813
0.982499
1.03108
1.08158
1.134
1.18835
1.2446
1.30273
1.36271
1.42447
1.48794
1.55299
1.6195
1.68732
1.7563
1.82626
1.89702
1.96838
2.04016
2.1122
2.18433
2.25643
2.3284
2.40013
2.47154
2.54256
2.61308
2.68297
2.75225
2.82088
2.88884
2.95609
3.02259
3.08831
3.1532
3.21722
3.28034
3.34253
3.40376
3.464
3.52323
3.58143
3.63857
3.69461
3.74952
3.80324
3.85572
3.90692
3.95677
4.00524
4.05225
4.09774
4.14165
4.18387
4.22435
4.26301
4.29978
4.33463
4.36748
4.39829
4.427
4.45358
4.478
4.50026
4.52035
4.53828
4.55406
4.56771
4.57925
4.58871
4.59614
4.60156
4.60503
4.60658
4.60629
4.60428
4.60029
4.59451
4.587
4.57778
4.5669
4.5544
4.54031
4.52467
4.5075
4.48885
4.46873
4.44717
4.42416
4.39972
4.37395
4.34692
4.31866
4.28924
4.25868
4.22704
4.19434
4.16065
4.126
4.09045
4.05404
4.01681
3.97878
3.94
3.90057
3.86057
3.82006
3.77914
3.73786
3.6963
3.65453
3.61262
3.57063
3.52865
3.48676
3.44509
3.40374
3.36286
3.32255
3.28291
3.24412
3.20555
3.16635
0.00364195
0.0415864
0.0674857
0.0783923
0.0827395
0.0837683
0.0827521
0.0804218
0.0775751
0.074885
0.0727721
0.0714997
0.071083
0.0713482
0.0725656
0.0747082
0.0777009
0.081477
0.0859881
0.0911902
0.0970383
0.103492
0.110527
0.118143
0.126352
0.135197
0.14475
0.155115
0.166418
0.178784
0.192309
0.207061
0.223061
0.240276
0.258636
0.278047
0.298413
0.319648
0.341682
0.364469
0.387987
0.412229
0.43721
0.462973
0.48958
0.517088
0.545586
0.575186
0.605995
0.638124
0.671681
0.706775
0.743511
0.781989
0.822303
0.864536
0.908771
0.95508
1.00353
1.05419
1.10709
1.16225
1.21969
1.2794
1.34136
1.40551
1.47178
1.54003
1.6101
1.68178
1.75484
1.829
1.90401
1.97961
2.0556
2.13179
2.20802
2.28406
2.35994
2.43564
2.51104
2.58609
2.66071
2.73476
2.80811
2.88084
2.95284
3.02408
3.09451
3.16409
3.23278
3.30053
3.3673
3.43305
3.49775
3.56138
3.6239
3.68529
3.74554
3.8046
3.86245
3.91905
3.97436
4.02831
4.08086
4.13194
4.18152
4.22953
4.27592
4.3206
4.3635
4.40453
4.44363
4.48074
4.51582
4.54879
4.57962
4.60826
4.63466
4.65881
4.6807
4.70033
4.71772
4.73287
4.74582
4.75659
4.7652
4.7717
4.77613
4.77855
4.77901
4.77768
4.77438
4.76914
4.76209
4.75327
4.74272
4.73049
4.71661
4.70112
4.68406
4.66545
4.64533
4.62373
4.60068
4.57618
4.55025
4.52298
4.49442
4.46461
4.4336
4.40141
4.3681
4.3337
4.29826
4.26181
4.22441
4.18611
4.14694
4.10686
4.06599
4.02441
3.98219
3.93942
3.89617
3.8525
3.80848
3.76419
3.7197
3.67505
3.63034
3.58566
3.54114
3.4969
3.45308
3.4098
3.36715
3.32533
3.28378
3.24203
0.00462304
0.0479969
0.0751372
0.0863028
0.0905311
0.0912926
0.0897822
0.0870752
0.0842492
0.0819654
0.0805743
0.0800769
0.0801755
0.0811576
0.0829901
0.0856331
0.0890127
0.0930718
0.0977794
0.103123
0.109102
0.11573
0.123031
0.131049
0.139842
0.149476
0.160022
0.171543
0.184079
0.197651
0.212273
0.227925
0.244556
0.262101
0.280503
0.299707
0.319676
0.340391
0.361853
0.38408
0.407101
0.430958
0.455721
0.481499
0.508296
0.536107
0.565075
0.595364
0.627058
0.660253
0.695046
0.731541
0.769846
0.810071
0.852317
0.896689
0.943282
0.992187
1.04349
1.0973
1.15368
1.21264
1.2742
1.33834
1.40503
1.47422
1.5458
1.61959
1.69539
1.77288
1.85172
1.93148
2.01173
2.09199
2.17231
2.25251
2.33237
2.41175
2.49082
2.56952
2.64774
2.72548
2.80287
2.87969
2.9559
3.03129
3.10576
3.17925
3.25175
3.32324
3.39368
3.46303
3.53125
3.59831
3.66418
3.72885
3.7923
3.85452
3.91549
3.97518
4.03356
4.09061
4.14628
4.20049
4.25321
4.30438
4.35396
4.40189
4.44812
4.49257
4.53516
4.5758
4.61442
4.65098
4.68543
4.71771
4.74778
4.77559
4.80109
4.82427
4.84512
4.86365
4.87989
4.89385
4.90556
4.91503
4.92231
4.92744
4.93046
4.93143
4.93055
4.92769
4.92277
4.91599
4.90739
4.89703
4.88493
4.87116
4.85574
4.83871
4.82011
4.79996
4.7783
4.75516
4.73058
4.70459
4.67725
4.64857
4.61858
4.58731
4.55482
4.52112
4.48627
4.45028
4.41322
4.37511
4.336
4.29594
4.25498
4.21307
4.17032
4.12681
4.08261
4.03778
3.9924
3.94654
3.90025