/*--------------------------------*- C++ -*----------------------------------*\
  =========                 |
  \\      /  F ield         | OpenFOAM: The Open Source CFD Toolbox
   \\    /   O peration     | Website:  https://openfoam.org
    \\  /    A nd           | Version:  13
     \\/     M anipulation  |
\*---------------------------------------------------------------------------*/
FoamFile
{
    format      ascii;
    class       volScalarField;
    location    "300";
    object      nut;
}
// * * * * * * * * * * * * * * * * * * * * * * * * * * * * * * * * * * * * * //

dimensions      [0 2 -1 0 0 0 0];

internalField   nonuniform List<scalar> 
12225
(
4.49811e-06
2.14628e-05
2.26115e-05
2.03499e-05
2.15962e-05
1.59647e-05
2.77578e-05
2.47658e-05
1.88562e-05
2.06172e-05
1.76194e-05
2.03016e-05
1.70864e-05
1.93466e-05
1.91002e-05
1.79618e-05
1.73446e-05
1.89936e-05
3.36275e-05
1.82583e-05
1.52983e-05
1.71861e-05
1.93284e-05
1.95522e-05
1.95996e-05
1.93912e-05
2.06089e-05
2.20414e-05
2.59632e-05
2.41819e-05
2.53238e-05
2.64599e-05
2.95331e-05
3.55762e-05
3.37998e-05
3.83419e-05
0.000141712
6.00686e-05
1.41147e-05
1.32965e-05
6.75534e-06
6.31501e-06
6.48613e-06
5.54139e-06
5.19487e-06
5.68359e-06
6.65811e-06
7.76748e-06
8.52395e-06
1.04092e-05
1.24204e-05
1.56513e-05
1.79599e-05
2.10022e-05
0.000540251
0.000299931
2.73894e-05
2.74609e-05
8.34145e-06
7.62437e-06
6.42541e-06
4.44029e-06
5.73135e-06
4.89141e-06
6.11693e-06
8.27127e-06
1.24351e-05
1.34876e-05
1.43657e-05
1.72342e-05
2.04579e-05
2.24289e-05
0.000643521
0.00067162
0.000253214
0.000276785
3.58504e-05
5.2486e-05
2.53477e-05
1.95915e-05
1.88123e-05
1.96258e-05
1.94647e-05
2.24438e-05
2.35e-05
2.65693e-05
2.87619e-05
3.4363e-05
4.10566e-05
4.57813e-05
0.000442729
0.000484424
0.000268035
0.000300114
9.66897e-05
0.00011898
0.000103335
8.85535e-05
7.04705e-05
6.42125e-05
6.67922e-05
7.13166e-05
7.45693e-05
7.83064e-05
8.14214e-05
8.45772e-05
9.0275e-05
9.59797e-05
0.00036209
0.000152379
0.000112451
0.000110904
0.000108442
0.000119547
0.000114487
0.000117671
0.000120925
0.000135783
0.000140522
0.000145365
0.000155753
0.000169878
0.000181724
0.000189109
0.000198319
0.000203379
0.000526673
0.000300256
0.00026036
0.000246663
0.000243735
0.000249265
0.000244275
0.000271811
0.000252593
0.000260436
0.000269586
0.000303263
0.000295676
0.000316572
0.000336842
0.000346303
0.000357054
0.000354386
0.000664342
0.0010146
0.000576042
0.000496461
0.000476547
0.000461238
0.000449888
0.000447171
0.000445028
0.000474972
0.000521101
0.000486202
0.000488891
0.000489723
0.000490779
0.000504955
0.000499019
0.000504994
0.000859268
0.00101397
0.000770776
0.00070779
0.000683993
0.000665421
0.000651857
0.000643996
0.00063749
0.000656287
0.000687146
0.000659691
0.0006733
0.000680052
0.000660771
0.00065512
0.000655647
0.000650403
0.000880145
0.000875519
0.000845913
0.000815024
0.000810214
0.000785418
0.000777711
0.000772108
0.000766733
0.000778264
0.000767872
0.000768951
0.000772805
0.000774585
0.000771299
0.000767777
0.000758723
0.000752475
0.000855307
0.000849252
0.00084683
0.000841186
0.000838095
0.000836624
0.000833849
0.00083172
0.000830634
0.000822519
0.000819975
0.000820942
0.000822103
0.000817202
0.000816286
0.000812421
0.000809957
0.000805973
0.000852342
0.00085038
0.00084874
0.000847503
0.000846394
0.000845936
0.0008451
0.000844374
0.000843465
0.000842252
0.00084101
0.000839889
0.000838671
0.000837476
0.00083598
0.00083452
0.000832701
0.000830989
0.000851661
0.000850696
0.000849684
0.000848866
0.000848079
0.000847454
0.000846845
0.000846232
0.000845679
0.000844984
0.000844384
0.000843686
0.000843044
0.000842286
0.000841631
0.000840794
0.000840018
0.000839005
0.000851552
0.000850683
0.000849844
0.000849057
0.000848321
0.000847618
0.000846977
0.000846334
0.000845765
0.000845158
0.00084463
0.00084406
0.000843566
0.000843016
0.000842538
0.000842007
0.000841515
0.000840979
0.00085154
0.000850674
0.000849855
0.000849072
0.000848334
0.000847626
0.000846961
0.000846317
0.000845714
0.000845126
0.000844576
0.000844037
0.000843534
0.000843039
0.000842574
0.000842118
0.000841683
0.000841257
0.000851538
0.000850673
0.000849852
0.00084907
0.000848328
0.00084762
0.000846947
0.000846303
0.000845691
0.000845105
0.000844546
0.00084401
0.0008435
0.00084301
0.000842543
0.000842094
0.000841666
0.000841253
0.000851539
0.000850677
0.000849858
0.000849077
0.000848335
0.000847628
0.000846954
0.000846311
0.000845697
0.00084511
0.00084455
0.000844014
0.000843501
0.000843011
0.000842541
0.000842092
0.000841662
0.00084125
0.000851537
0.000850674
0.000849851
0.000849069
0.000848324
0.000847615
0.000846939
0.000846295
0.000845679
0.000845092
0.00084453
0.000843993
0.000843479
0.000842987
0.000842515
0.000842064
0.000841631
0.000841217
0.000851535
0.000850675
0.00084985
0.00084907
0.000848324
0.000847616
0.00084694
0.000846298
0.000845683
0.000845098
0.000844533
0.000843994
0.000843469
0.000842967
0.000842476
0.000842009
0.000841553
0.000841123
0.000851524
0.000850689
0.00084984
0.000849085
0.000848324
0.000847632
0.000846948
0.000846329
0.000845703
0.000845122
0.000844486
0.000843882
0.000843199
0.000842548
0.000841834
0.000841177
0.000840477
0.000839874
0.000851469
0.000850758
0.000849747
0.000849176
0.000848263
0.00084771
0.000846913
0.000846422
0.000845633
0.000844782
0.000843411
0.000841969
0.00083994
0.000837955
0.000835621
0.000833443
0.000831123
0.000829178
0.000851323
0.000850962
0.000849414
0.00084954
0.000847845
0.000848016
0.000845757
0.000846296
0.000842737
0.000838949
0.00083304
0.000825881
0.000817308
0.000808526
0.000799403
0.000790162
0.000782025
0.000773915
0.000851139
0.000851382
0.000849473
0.000848467
0.000847145
0.000843917
0.000837516
0.000829136
0.000815659
0.000797722
0.000777704
0.000752017
0.000727647
0.000703554
0.000679243
0.00065827
0.000637482
0.000620946
0.000851863
0.000851297
0.000846063
0.000838207
0.000824821
0.000810896
0.000787701
0.000759341
0.000725676
0.0006812
0.000649833
0.000576236
0.000583847
0.000559072
0.000523709
0.000487221
0.000451813
0.000421337
0.000855677
0.000837416
0.000815746
0.000777307
0.000728992
0.00068789
0.000640917
0.000601264
0.000559652
0.000512399
0.000461027
0.00040608
0.000376018
0.00032826
0.000301992
0.000260862
0.000253825
0.000239765
0.000890553
0.000750233
0.000665946
0.000568171
0.000490383
0.000439187
0.000398721
0.000358222
0.000313356
0.00026495
0.000217664
0.000180453
0.000142522
0.000104009
8.97212e-05
7.41676e-05
6.33069e-05
5.06639e-05
0.00076894
0.000475717
0.000321155
0.000245794
0.000199642
0.000168813
0.000151768
0.000131419
0.000109054
8.94863e-05
7.11459e-05
5.31367e-05
4.39888e-05
3.63851e-05
3.15251e-05
3.04438e-05
3.01739e-05
2.97337e-05
0.000208449
0.000100281
7.52795e-05
6.46726e-05
5.81849e-05
5.4246e-05
5.21395e-05
5.09267e-05
5.05881e-05
4.95624e-05
5.1218e-05
5.03771e-05
4.86645e-05
4.95887e-05
4.85721e-05
5.02114e-05
4.95461e-05
4.7723e-05
1.31078e-05
1.6932e-05
1.95187e-05
2.10564e-05
2.19269e-05
2.21362e-05
2.21928e-05
2.19689e-05
2.16463e-05
2.12742e-05
2.0897e-05
2.05147e-05
2.01384e-05
1.97871e-05
1.94592e-05
1.91591e-05
1.88925e-05
1.86373e-05
1.38505e-12
1.56261e-10
8.00517e-10
3.16719e-09
1.06671e-08
3.2701e-08
8.69637e-08
1.75672e-07
2.88194e-07
4.08419e-07
5.17438e-07
6.03871e-07
6.62108e-07
6.89138e-07
6.83996e-07
6.56651e-07
6.12242e-07
5.4244e-07
4.58821e-07
3.91723e-07
3.30601e-07
2.72497e-07
2.1623e-07
1.64003e-07
1.16099e-07
7.57484e-08
4.55091e-08
2.55961e-08
1.40154e-08
7.852e-09
4.7019e-09
3.11693e-09
2.43844e-09
2.85012e-09
3.89559e-09
1.37617e-08
2.91626e-08
8.41657e-08
1.86459e-07
2.96789e-07
3.42515e-07
3.1884e-07
2.6294e-07
2.21453e-07
2.27975e-07
2.79131e-07
3.65981e-07
6.14038e-07
1.0876e-06
2.72424e-06
8.31142e-06
2.06771e-05
3.40638e-05
3.97798e-05
4.21373e-05
4.22438e-05
4.12769e-05
3.74738e-05
3.8008e-05
4.02354e-05
3.18463e-05
3.19626e-05
3.21125e-05
3.35775e-05
3.40799e-05
3.48838e-05
3.53978e-05
3.6075e-05
3.66273e-05
3.7241e-05
3.7798e-05
3.83793e-05
3.89318e-05
3.9495e-05
4.00417e-05
4.05935e-05
4.11349e-05
4.1679e-05
4.22158e-05
4.27542e-05
4.32863e-05
4.38191e-05
4.43462e-05
4.48731e-05
4.53937e-05
4.59133e-05
4.64268e-05
4.69394e-05
4.7447e-05
4.79533e-05
4.84556e-05
4.89535e-05
4.94472e-05
4.99365e-05
5.04227e-05
5.09052e-05
5.13854e-05
5.1863e-05
5.23409e-05
5.28207e-05
5.33089e-05
5.38123e-05
5.43205e-05
5.48342e-05
5.53554e-05
5.58856e-05
5.64254e-05
5.69771e-05
5.75406e-05
5.81184e-05
5.87103e-05
5.93188e-05
5.99435e-05
6.05867e-05
6.12484e-05
6.19305e-05
6.26333e-05
6.33585e-05
6.41069e-05
6.48806e-05
6.56813e-05
6.65121e-05
6.73763e-05
6.82782e-05
6.92266e-05
7.02335e-05
7.1313e-05
7.22579e-05
7.34388e-05
7.44487e-05
7.57151e-05
7.67751e-05
7.81161e-05
7.93932e-05
7.92631e-05
7.89961e-05
7.87182e-05
7.84267e-05
7.81223e-05
7.78051e-05
7.74757e-05
7.71347e-05
7.67829e-05
7.64207e-05
7.60486e-05
7.5665e-05
7.52747e-05
7.48723e-05
7.44645e-05
7.40465e-05
7.36238e-05
7.31923e-05
7.27579e-05
7.23172e-05
7.18726e-05
7.14248e-05
7.09741e-05
7.0522e-05
7.00684e-05
6.96152e-05
6.91632e-05
6.87114e-05
6.82617e-05
6.7815e-05
6.7372e-05
6.69331e-05
6.65001e-05
6.60735e-05
6.56535e-05
6.52418e-05
6.48382e-05
6.44428e-05
6.40538e-05
6.36683e-05
6.32831e-05
6.28872e-05
6.24758e-05
6.2021e-05
6.14816e-05
5.99618e-05
6.99528e-12
1.14057e-09
1.55473e-08
8.23909e-08
3.59966e-07
1.15312e-06
2.72133e-06
5.03909e-06
7.90771e-06
1.11941e-05
1.45547e-05
1.76943e-05
2.02989e-05
2.22669e-05
2.33664e-05
2.36466e-05
2.33771e-05
2.26465e-05
2.06572e-05
1.81319e-05
1.45303e-05
1.11004e-05
8.12495e-06
5.76065e-06
3.8646e-06
2.51188e-06
1.61117e-06
1.03337e-06
6.75649e-07
4.49555e-07
3.1905e-07
2.46705e-07
2.26038e-07
2.37214e-07
2.42627e-07
9.491e-07
1.95952e-06
5.56247e-06
1.1568e-05
1.69117e-05
1.93247e-05
1.85678e-05
1.68183e-05
1.47185e-05
1.43626e-05
1.62626e-05
1.70897e-05
2.01565e-05
2.74358e-05
3.90409e-05
4.98125e-05
6.14381e-05
7.11474e-05
8.00169e-05
8.95652e-05
0.000101875
0.000113185
0.000125177
0.000138195
0.000158048
0.000165478
0.000180288
0.000195363
0.000208816
0.000222205
0.000234401
0.000246268
0.000257718
0.000268672
0.000279183
0.000289372
0.000299166
0.000308709
0.000317955
0.00032699
0.000335803
0.000344438
0.000352899
0.000361213
0.000369387
0.000377436
0.000385371
0.000393198
0.000400933
0.000408577
0.000416145
0.000423638
0.000431073
0.00043845
0.00044578
0.000453067
0.000460305
0.000467491
0.000474613
0.000481662
0.000488614
0.000495443
0.000502099
0.000508519
0.000514604
0.000520243
0.000525276
0.00053018
0.000534942
0.000539586
0.000544086
0.000548444
0.000552648
0.000556693
0.000560573
0.000564281
0.000567812
0.000571159
0.000574319
0.000577285
0.000580055
0.000582623
0.000584988
0.000587144
0.000589091
0.000590826
0.000592353
0.000593672
0.000594786
0.000595696
0.00059641
0.000596948
0.000597387
0.000597799
0.000597851
0.000597737
0.000597353
0.000596897
0.000596597
0.000596385
0.000596034
0.000595527
0.000594867
0.000594057
0.000593099
0.000591992
0.000590735
0.000589351
0.000587881
0.000586182
0.000584512
0.000582527
0.000580599
0.00057839
0.000576206
0.000573778
0.000571357
0.00056877
0.000566116
0.000563378
0.000560556
0.000557672
0.000554704
0.000551693
0.000548647
0.00054554
0.000542406
0.000539245
0.000536063
0.000532863
0.00052966
0.000526463
0.000523273
0.000520108
0.000516962
0.000513847
0.000510759
0.000507666
0.000504542
0.000501356
0.000498012
0.000494403
0.000490266
0.00048493
0.000469558
1.72109e-11
2.91022e-09
5.50774e-08
3.32603e-07
1.17882e-06
2.90263e-06
6.28154e-06
1.10588e-05
1.70384e-05
2.39206e-05
3.11452e-05
3.81328e-05
4.44743e-05
4.9861e-05
5.41217e-05
5.68829e-05
5.87633e-05
5.9357e-05
5.86499e-05
5.6318e-05
5.23708e-05
4.71839e-05
4.03367e-05
3.30332e-05
2.59976e-05
1.96616e-05
1.42443e-05
1.00296e-05
6.95617e-06
4.75399e-06
3.38536e-06
2.5573e-06
2.17519e-06
2.10433e-06
2.32266e-06
6.6376e-06
1.41178e-05
3.13626e-05
4.77187e-05
5.66459e-05
5.58302e-05
4.49089e-05
3.70748e-05
3.66617e-05
4.30685e-05
5.15709e-05
6.19725e-05
7.65399e-05
8.98558e-05
0.000103482
0.000121786
0.000141788
0.000164486
0.000189793
0.000218654
0.000250605
0.000282872
0.000315791
0.00034742
0.000381562
0.000409767
0.000438447
0.00046888
0.000494822
0.000520915
0.000545054
0.000568409
0.000590713
0.000612187
0.000632892
0.000652981
0.000672469
0.000691486
0.000710045
0.000728225
0.000746046
0.000763554
0.000780769
0.000797719
0.00081442
0.000830894
0.000847153
0.000863213
0.000879086
0.000894781
0.00091031
0.00092568
0.000940899
0.000955971
0.000970901
0.000985684
0.00100031
0.00101476
0.00102902
0.00104306
0.00105685
0.00107036
0.00108355
0.00109638
0.00110881
0.00112083
0.0011325
0.00114396
0.00115516
0.00116609
0.00117672
0.00118704
0.00119704
0.00120669
0.00121598
0.00122489
0.00123341
0.00124154
0.00124925
0.00125654
0.00126339
0.00126981
0.00127578
0.0012813
0.00128636
0.00129097
0.00129514
0.00129887
0.00130217
0.00130505
0.00130753
0.00130963
0.00131138
0.00131279
0.00131371
0.00131427
0.00131445
0.00131468
0.00131471
0.00131432
0.00131359
0.00131252
0.00131111
0.00130936
0.00130728
0.00130488
0.00130216
0.00129913
0.00129586
0.00129218
0.00128837
0.00128408
0.0012797
0.00127487
0.00126993
0.00126459
0.00125912
0.00125336
0.00124741
0.00124127
0.00123494
0.00122846
0.00122183
0.00121508
0.00120823
0.00120128
0.00119425
0.00118717
0.00118003
0.00117287
0.0011657
0.00115855
0.00115142
0.00114435
0.00113733
0.00113039
0.00112349
0.0011166
0.00110969
0.00110267
0.00109535
0.00108745
0.00107826
0.00106629
0.00103844
6.38259e-11
1.08191e-08
1.7599e-07
7.6613e-07
2.4727e-06
6.77595e-06
1.36484e-05
2.28596e-05
3.36583e-05
4.49485e-05
5.59815e-05
6.62898e-05
7.52991e-05
8.27054e-05
8.83036e-05
9.24125e-05
9.46454e-05
9.52743e-05
9.44807e-05
9.23907e-05
8.85e-05
8.37357e-05
7.72355e-05
6.94286e-05
6.02086e-05
5.04458e-05
4.07665e-05
3.21064e-05
2.48745e-05
1.93151e-05
1.50021e-05
1.22113e-05
9.94314e-06
1.08452e-05
1.56008e-05
2.91531e-05
4.91805e-05
6.53319e-05
7.20383e-05
6.94725e-05
6.69315e-05
6.76366e-05
7.22145e-05
8.08992e-05
9.34265e-05
0.000110162
0.00012293
0.000143343
0.000168755
0.000196767
0.000231856
0.000269483
0.000311619
0.000356096
0.000403039
0.000450912
0.000498485
0.000545321
0.000590393
0.000634946
0.000676373
0.000715838
0.000755755
0.000792178
0.000827902
0.000861833
0.000894642
0.000926292
0.000956969
0.000986779
0.00101583
0.0010442
0.00107198
0.0010992
0.00112593
0.0011522
0.00117805
0.0012035
0.00122858
0.0012533
0.00127768
0.00130173
0.00132548
0.00134892
0.00137208
0.00139495
0.00141755
0.00143988
0.00146194
0.00148374
0.00150527
0.00152652
0.00154749
0.00156814
0.00158846
0.00160844
0.00162806
0.00164729
0.00166615
0.00168461
0.00170268
0.0017204
0.00173777
0.00175476
0.00177135
0.00178749
0.00180317
0.00181836
0.00183304
0.00184718
0.00186077
0.00187379
0.00188621
0.00189803
0.00190922
0.00191978
0.0019297
0.00193897
0.00194758
0.00195554
0.00196285
0.00196952
0.00197556
0.00198099
0.00198583
0.00199008
0.00199378
0.00199693
0.00199954
0.00200154
0.00200298
0.00200389
0.00200467
0.00200499
0.0020047
0.00200387
0.00200253
0.00200069
0.00199835
0.00199552
0.0019922
0.0019884
0.00198414
0.00197944
0.00197424
0.00196868
0.00196258
0.00195614
0.00194919
0.00194191
0.00193416
0.0019261
0.00191766
0.0019089
0.00189984
0.00189049
0.00188089
0.00187106
0.00186103
0.00185083
0.00184048
0.00183
0.00181942
0.00180875
0.00179804
0.0017873
0.00177657
0.00176587
0.00175524
0.0017447
0.00173425
0.00172389
0.00171357
0.00170324
0.00169278
0.00168199
0.00167036
0.00165716
0.00164016
0.00160739
2.1207e-10
3.21227e-08
3.94231e-07
1.87025e-06
6.46303e-06
1.57359e-05
2.92646e-05
4.54206e-05
6.24601e-05
7.89207e-05
9.36744e-05
0.000105964
0.00011522
0.000122267
0.000126837
0.000129313
0.000130053
0.000129276
0.000127177
0.000123901
0.00011929
0.000113782
0.000107148
9.94515e-05
9.0244e-05
7.98688e-05
6.86886e-05
5.75901e-05
4.75842e-05
3.94041e-05
3.12542e-05
2.5617e-05
2.47498e-05
3.16584e-05
4.92514e-05
6.95329e-05
8.2362e-05
8.87024e-05
9.16505e-05
9.43618e-05
9.94706e-05
0.000108608
0.000122889
0.000138016
0.000152217
0.000174564
0.00020594
0.000239982
0.000282026
0.000327801
0.000379321
0.000432834
0.000489417
0.00054687
0.000605073
0.000662878
0.000719695
0.000775094
0.00082872
0.000880532
0.000930485
0.000978414
0.00102534
0.00107
0.00111335
0.00115518
0.00119578
0.00123522
0.00127364
0.00131115
0.00134783
0.00138376
0.00141901
0.00145363
0.00148766
0.00152113
0.00155408
0.00158652
0.00161847
0.00164996
0.00168099
0.00171157
0.00174173
0.00177146
0.00180077
0.00182969
0.0018582
0.00188632
0.00191406
0.00194141
0.00196838
0.00199496
0.00202115
0.00204693
0.0020723
0.00209724
0.00212177
0.00214586
0.00216952
0.00219276
0.00221556
0.00223792
0.00225981
0.0022812
0.00230208
0.00232239
0.00234212
0.00236124
0.00237972
0.00239754
0.00241467
0.00243109
0.00244679
0.00246175
0.00247595
0.00248938
0.00250203
0.0025139
0.00252497
0.00253526
0.00254476
0.00255349
0.00256147
0.00256871
0.00257523
0.00258105
0.00258618
0.00259064
0.0025944
0.00259748
0.00259984
0.0026015
0.00260287
0.00260363
0.00260364
0.00260298
0.0026017
0.00259978
0.00259724
0.00259408
0.00259031
0.00258594
0.00258099
0.00257547
0.00256935
0.0025627
0.00255545
0.00254768
0.00253934
0.00253051
0.00252113
0.0025113
0.002501
0.00249026
0.00247913
0.00246762
0.00245576
0.0024436
0.00243115
0.00241847
0.00240556
0.00239248
0.00237923
0.00236586
0.0023524
0.00233888
0.00232535
0.00231184
0.00229838
0.00228499
0.00227171
0.00225853
0.00224542
0.00223233
0.00221915
0.00220568
0.00219141
0.00217555
0.00215559
0.00212263
6.60392e-10
7.95078e-08
9.67312e-07
4.90081e-06
1.61996e-05
3.44239e-05
5.64201e-05
7.97072e-05
0.000101347
0.000119507
0.000133707
0.000144461
0.000152002
0.000156601
0.000159022
0.000159645
0.000158733
0.000156469
0.000153055
0.000148561
0.000142931
0.000136597
0.000129338
0.000120952
0.00011143
9.73764e-05
8.2197e-05
6.76097e-05
5.43517e-05
4.49988e-05
4.07291e-05
4.35422e-05
5.60238e-05
7.54877e-05
9.31967e-05
0.000105511
0.000113131
0.000118322
0.000124429
0.0001345
0.000150734
0.000162692
0.000177175
0.000201442
0.0002326
0.000269923
0.000315544
0.000365677
0.000422168
0.000481328
0.000543849
0.000607526
0.000672459
0.000737371
0.000801988
0.000865658
0.000928066
0.000988746
0.00104768
0.00110526
0.0011611
0.00121503
0.0012675
0.00131826
0.00136762
0.0014156
0.00146236
0.00150799
0.00155259
0.00159626
0.00163906
0.00168106
0.00172232
0.00176288
0.00180276
0.00184201
0.00188063
0.00191864
0.00195607
0.00199291
0.00202918
0.00206489
0.00210005
0.00213466
0.00216874
0.0022023
0.00223533
0.00226785
0.00229987
0.00233139
0.00236242
0.00239297
0.00242302
0.00245257
0.00248163
0.00251019
0.00253826
0.00256582
0.00259288
0.00261945
0.00264549
0.00267099
0.00269594
0.00272029
0.00274404
0.00276714
0.00278958
0.00281132
0.00283235
0.00285264
0.00287217
0.00289091
0.00290885
0.00292598
0.00294228
0.00295774
0.00297235
0.0029861
0.00299899
0.00301101
0.00302218
0.00303251
0.00304201
0.0030507
0.00305859
0.0030657
0.00307207
0.00307771
0.00308249
0.00308656
0.00308984
0.00309229
0.00309431
0.00309562
0.00309612
0.00309588
0.00309491
0.00309324
0.00309086
0.00308778
0.003084
0.00307954
0.00307441
0.00306863
0.00306217
0.00305508
0.00304732
0.00303894
0.00302992
0.00302029
0.00301006
0.00299927
0.00298793
0.00297607
0.00296373
0.00295092
0.00293769
0.00292407
0.0029101
0.0028958
0.00288123
0.0028664
0.00285136
0.00283613
0.00282076
0.00280529
0.00278976
0.00277422
0.00275871
0.00274326
0.0027279
0.00271265
0.00269749
0.00268239
0.00266724
0.0026519
0.00263598
0.0026186
0.0025975
0.00256632
2.0493e-09
1.98072e-07
2.5132e-06
1.31843e-05
3.49925e-05
6.32718e-05
9.23032e-05
0.000117132
0.000136937
0.000152256
0.000164012
0.00017213
0.000177358
0.000180193
0.000181088
0.000180382
0.000178307
0.00017503
0.000170575
0.000164954
0.00015827
0.000150658
0.000141719
0.000130366
0.000112431
9.66538e-05
8.2914e-05
7.13177e-05
6.38076e-05
6.45647e-05
7.43684e-05
8.99592e-05
0.000111233
0.000124573
0.000135025
0.000143161
0.000150673
0.000161104
0.000177603
0.000185749
0.000199269
0.000222514
0.000252521
0.000289961
0.000334775
0.000386424
0.000444479
0.000506298
0.000571782
0.000638925
0.000707644
0.00077684
0.000846222
0.000915123
0.000983303
0.00105018
0.00111562
0.00118013
0.00124301
0.00130427
0.00136393
0.00142197
0.00147855
0.00153367
0.00158744
0.00163994
0.00169126
0.0017415
0.00179072
0.00183901
0.00188642
0.001933
0.0019788
0.00202384
0.00206815
0.00211173
0.00215462
0.0021968
0.0022383
0.00227911
0.00231924
0.00235871
0.00239751
0.00243565
0.00247314
0.00251
0.00254621
0.00258181
0.0026168
0.00265118
0.00268498
0.00271819
0.00275082
0.00278288
0.00281436
0.00284526
0.0028756
0.00290535
0.00293451
0.00296306
0.00299101
0.00301834
0.00304505
0.00307111
0.00309651
0.00312123
0.00314524
0.00316852
0.00319107
0.00321286
0.00323387
0.00325411
0.00327354
0.00329213
0.00330987
0.00332676
0.00334277
0.0033579
0.00337214
0.00338549
0.00339796
0.00340955
0.00342028
0.00343016
0.0034392
0.00344742
0.0034549
0.00346152
0.00346723
0.00347223
0.0034764
0.00347967
0.00348239
0.00348434
0.00348546
0.00348577
0.00348531
0.00348409
0.00348211
0.00347939
0.00347596
0.00347182
0.00346696
0.00346139
0.0034551
0.0034481
0.0034404
0.003432
0.00342291
0.00341315
0.00340273
0.00339167
0.00338
0.00336775
0.00335493
0.00334158
0.00332773
0.00331341
0.00329867
0.00328354
0.00326805
0.00325224
0.00323614
0.0032198
0.00320325
0.00318654
0.00316971
0.00315283
0.00313592
0.00311904
0.00310223
0.00308551
0.0030689
0.00305236
0.00303581
0.00301919
0.00300225
0.00298427
0.00296335
0.00293479
6.02316e-09
5.13016e-07
6.51408e-06
2.82037e-05
6.09218e-05
9.55944e-05
0.000126025
0.000150172
0.000167985
0.000180584
0.000188566
0.000193333
0.000195704
0.000196344
0.000195504
0.000193339
0.000189905
0.000185122
0.000179078
0.000172027
0.000164095
0.000155054
0.000144656
0.000125874
0.000109748
9.74293e-05
9.02074e-05
8.99907e-05
9.09721e-05
0.000102428
0.00012183
0.000142241
0.0001611
0.00017267
0.000181276
0.000191677
0.000199323
0.000206706
0.000219108
0.000239965
0.000267297
0.000302648
0.000345117
0.000394845
0.000451191
0.000513055
0.000579014
0.000647388
0.000717634
0.000788782
0.000860534
0.000932318
0.00100381
0.0010745
0.00114406
0.00121294
0.00128067
0.00134701
0.0014119
0.00147534
0.00153733
0.0015979
0.0016571
0.00171498
0.00177162
0.00182709
0.00188144
0.00193476
0.00198711
0.00203854
0.0020891
0.00213884
0.00218777
0.00223592
0.00228329
0.0023299
0.00237573
0.0024208
0.00246509
0.00250861
0.00255137
0.00259336
0.00263458
0.00267505
0.00271478
0.00275376
0.00279201
0.00282953
0.00286636
0.00290249
0.00293795
0.00297274
0.00300687
0.00304036
0.0030732
0.00310541
0.00313698
0.00316791
0.00319819
0.00322781
0.0032568
0.00328516
0.00331287
0.00333993
0.00336632
0.00339204
0.00341705
0.00344136
0.00346493
0.00348776
0.00350982
0.0035311
0.00355157
0.00357122
0.00359005
0.00360802
0.00362513
0.00364137
0.00365673
0.0036712
0.00368479
0.0036975
0.00370933
0.00372031
0.00373044
0.00373976
0.0037483
0.00375586
0.00376258
0.00376856
0.00377371
0.00377792
0.00378151
0.00378429
0.00378622
0.00378733
0.00378764
0.00378715
0.00378588
0.00378384
0.00378102
0.00377744
0.0037731
0.00376801
0.00376217
0.00375558
0.00374824
0.00374017
0.00373136
0.00372183
0.00371159
0.00370067
0.00368907
0.00367684
0.00366398
0.00365052
0.0036365
0.00362194
0.00360688
0.00359136
0.00357541
0.00355907
0.00354236
0.00352533
0.00350803
0.0034905
0.00347279
0.00345495
0.00343704
0.0034191
0.00340118
0.00338333
0.00336555
0.00334787
0.00333018
0.00331268
0.0032951
0.00327686
0.00325651
0.00323067
1.55801e-08
1.24951e-06
1.46465e-05
4.80011e-05
8.87454e-05
0.000125399
0.000154352
0.000175753
0.000190543
0.000200066
0.000205597
0.00020801
0.000208048
0.000206264
0.000203092
0.000198733
0.00019323
0.000186604
0.00017884
0.000169859
0.000160047
0.000149171
0.000137504
0.000125067
0.0001157
0.000108468
0.000108301
0.000116872
0.000131794
0.000149345
0.000167623
0.00018419
0.000198118
0.000208351
0.00021555
0.000224238
0.000236155
0.000254638
0.000278749
0.000310783
0.00034973
0.000395905
0.00044858
0.000507363
0.000571202
0.000638736
0.000708641
0.00077994
0.000852198
0.000924889
0.000997686
0.00107024
0.00114189
0.00121293
0.00128344
0.00135276
0.00142088
0.00148773
0.00155326
0.00161747
0.00168035
0.00174194
0.00180229
0.00186144
0.00191945
0.00197638
0.00203229
0.00208723
0.00214126
0.00219443
0.00224678
0.00229834
0.00234912
0.00239915
0.0024484
0.00249685
0.0025445
0.00259134
0.00263735
0.00268254
0.00272688
0.00277038
0.00281304
0.00285486
0.00289586
0.00293606
0.0029755
0.00301413
0.00305197
0.00308903
0.00312532
0.00316086
0.00319566
0.00322974
0.00326312
0.00329579
0.00332777
0.00335908
0.00338973
0.00341974
0.0034491
0.00347783
0.00350591
0.00353334
0.00356012
0.00358624
0.0036117
0.00363648
0.00366057
0.00368395
0.00370661
0.00372853
0.0037497
0.00377009
0.00378969
0.00380849
0.00382647
0.00384361
0.00385991
0.00387535
0.00388993
0.00390365
0.00391652
0.00392854
0.00393973
0.00395014
0.00395963
0.00396818
0.003976
0.00398302
0.00398922
0.00399449
0.00399907
0.00400284
0.00400575
0.00400783
0.00400909
0.00400956
0.00400923
0.00400812
0.00400622
0.00400355
0.00400011
0.00399589
0.0039909
0.00398515
0.00397862
0.00397133
0.00396327
0.00395446
0.00394491
0.00393464
0.00392365
0.00391197
0.00389961
0.0038866
0.00387296
0.00385871
0.0038439
0.00382855
0.00381269
0.00379636
0.00377959
0.00376242
0.0037449
0.00372706
0.00370898
0.00369069
0.00367225
0.00365372
0.00363514
0.00361658
0.00359807
0.00357963
0.00356114
0.00354287
0.00352465
0.00350605
0.00348594
0.00346223
3.49e-08
2.84982e-06
2.67258e-05
7.12927e-05
0.000116717
0.000153673
0.00018033
0.000198223
0.000209663
0.000215559
0.000217252
0.000216028
0.000212785
0.000208089
0.0002023
0.000195285
0.000187387
0.000178047
0.000167824
0.000157653
0.000147777
0.000138248
0.000130318
0.000125712
0.000126263
0.000132488
0.000143407
0.000157687
0.000173621
0.000189505
0.000204353
0.000216805
0.000226384
0.000236675
0.000249581
0.000266455
0.000288012
0.000316399
0.000351311
0.000393175
0.000441267
0.000495358
0.000554775
0.0006188
0.000686314
0.000756145
0.000827387
0.000899436
0.000971915
0.00104447
0.00111665
0.00118812
0.00125946
0.00132993
0.00139943
0.00146781
0.00153503
0.00160103
0.0016658
0.00172933
0.00179164
0.00185276
0.00191274
0.00197166
0.00202955
0.0020865
0.00214254
0.00219771
0.00225205
0.00230566
0.00235855
0.00241075
0.00246227
0.00251311
0.00256331
0.00261293
0.00266181
0.00270983
0.00275697
0.00280319
0.00284849
0.00289286
0.00293631
0.00297883
0.00302043
0.00306111
0.00310084
0.0031397
0.00317772
0.00321491
0.0032513
0.00328689
0.00332172
0.00335579
0.00338913
0.00342175
0.00345367
0.00348491
0.00351549
0.00354543
0.00357472
0.00360338
0.00363142
0.00365883
0.00368563
0.00371182
0.00373739
0.00376234
0.00378666
0.00381034
0.00383337
0.00385572
0.00387739
0.00389836
0.0039186
0.0039381
0.00395685
0.00397482
0.00399199
0.00400836
0.00402392
0.00403865
0.00405256
0.00406566
0.00407797
0.00408943
0.00409993
0.00410969
0.00411866
0.00412682
0.00413417
0.00414063
0.00414636
0.00415127
0.00415532
0.00415855
0.00416096
0.00416257
0.00416339
0.00416342
0.00416268
0.00416115
0.00415885
0.00415576
0.0041519
0.00414725
0.00414182
0.00413561
0.00412861
0.00412084
0.00411231
0.00410301
0.00409297
0.00408219
0.0040707
0.00405849
0.0040456
0.00403204
0.00401785
0.00400304
0.00398765
0.0039717
0.00395523
0.00393828
0.00392089
0.0039031
0.00388498
0.00386656
0.00384791
0.00382908
0.00381014
0.00379114
0.00377214
0.00375318
0.00373428
0.00371553
0.0036969
0.00367811
0.00365826
0.00363667
6.77878e-08
5.86928e-06
4.05907e-05
9.13808e-05
0.000138517
0.000175269
0.000200657
0.000215878
0.000223198
0.000224914
0.000222788
0.000218081
0.000211677
0.000203906
0.00019535
0.000185849
0.000175893
0.000166281
0.000158122
0.000151503
0.000146227
0.000143406
0.00014408
0.0001486
0.0001568
0.000167964
0.000181095
0.000195172
0.000209345
0.000222434
0.000233714
0.000245173
0.000259144
0.000275616
0.000295639
0.000320855
0.000351877
0.000389183
0.00043239
0.000481279
0.000535308
0.000594069
0.000656922
0.000723076
0.000791577
0.000861542
0.000932313
0.00100345
0.00107464
0.00114528
0.0012156
0.00128558
0.00135473
0.00142291
0.00149002
0.00155599
0.00162079
0.00168442
0.00174688
0.0018082
0.00186841
0.00192745
0.00198549
0.00204261
0.0020989
0.00215442
0.0022093
0.00226373
0.0023178
0.00237129
0.00242418
0.00247647
0.00252816
0.00257925
0.0026297
0.0026794
0.00272835
0.00277646
0.00282371
0.00287008
0.00291553
0.00296005
0.00300362
0.00304625
0.00308794
0.0031287
0.00316856
0.00320752
0.00324559
0.0032828
0.00331916
0.00335468
0.00338939
0.00342332
0.00345647
0.00348887
0.00352055
0.00355153
0.00358184
0.00361149
0.00364051
0.00366891
0.00369672
0.00372395
0.0037506
0.00377669
0.00380223
0.00382722
0.00385166
0.00387554
0.00389884
0.00392156
0.00394367
0.00396517
0.00398602
0.00400622
0.00402573
0.00404455
0.00406263
0.00407998
0.00409656
0.00411236
0.0041274
0.00414167
0.00415514
0.00416771
0.00417953
0.00419055
0.00420079
0.00421023
0.00421886
0.00422667
0.00423371
0.00423993
0.00424529
0.00424984
0.00425357
0.00425651
0.00425866
0.00426003
0.00426062
0.00426044
0.00425948
0.00425774
0.00425522
0.00425191
0.0042478
0.00424289
0.00423719
0.0042307
0.00422343
0.00421538
0.00420654
0.00419694
0.00418658
0.00417546
0.0041636
0.00415102
0.00413773
0.00412375
0.00410911
0.00409384
0.00407795
0.0040615
0.00404452
0.00402705
0.00400915
0.00399086
0.00397225
0.00395336
0.00393427
0.00391504
0.00389573
0.00387642
0.00385715
0.00383802
0.00381904
0.00380005
0.00378025
0.00376023
1.12148e-07
1.04502e-05
5.66036e-05
0.000114667
0.000163345
0.000197713
0.000218943
0.000229674
0.00023281
0.000230729
0.000225232
0.000217531
0.000208492
0.00019905
0.000189475
0.000180667
0.000172531
0.000166814
0.000163191
0.000161439
0.000162068
0.00016544
0.000171581
0.000180182
0.000190721
0.000202597
0.000215278
0.000227813
0.000239535
0.000251526
0.000265791
0.000282667
0.000301965
0.000325119
0.000352871
0.000385959
0.000424415
0.00046809
0.00051658
0.000569538