/*--------------------------------*- C++ -*----------------------------------*\
  =========                 |
  \\      /  F ield         | OpenFOAM: The Open Source CFD Toolbox
   \\    /   O peration     | Website:  https://openfoam.org
    \\  /    A nd           | Version:  13
     \\/     M anipulation  |
\*---------------------------------------------------------------------------*/
FoamFile
{
    format      ascii;
    class       volScalarField;
    location    "300";
    object      omega;
}
// * * * * * * * * * * * * * * * * * * * * * * * * * * * * * * * * * * * * * //

dimensions      [0 0 -1 0 0 0 0];

internalField   nonuniform List<scalar> 
12225
(
31477.7
31477.7
49088.3
49704.2
43742.3
41660.9
31477.7
44240.8
44282.8
48078.1
49908.7
46510
41850
44101.6
44796.7
46485.2
46173
40858.6
9713.71
17666.9
19577
20892.3
19600.7
18792.5
19610.7
19603
18989
19890.5
18811.7
22472.5
22068
21884.5
20519.8
18441.1
21356.8
20688.4
2670.74
4347.51
10253.5
7166.86
10785.6
8581.73
8509.93
10002
11140.7
11456.2
11363.6
11046.6
10816.8
10249.8
9877.57
9635.13
9429.81
9312.36
697.074
1051.45
7607.09
4328.6
8007.11
6013.96
6124.25
8390.09
6547.09
7749.86
7774.38
7130.85
6459.05
6022.69
5631.96
5153.55
4765.33
4567.4
575.629
485.936
1040.33
760.917
4762.17
2807.8
5124.05
6258.35
6429.46
6120.87
5753.27
5336.56
5008.61
4704.7
4267.4
3793.68
3303.77
2986.92
875.143
694.316
1131.65
991.139
2902.08
2150.65
2369.2
2569.46
3215.31
3347.9
3203.25
3037.23
2902.74
2751.69
2594.96
2473.89
2301.64
2155
1053.49
2320.49
2968.49
2900.27
2845.29
2467.45
2528.3
2434.41
2394.2
2132.96
2053.89
1964.4
1818.71
1658.64
1537.79
1469.17
1392.16
1339.56
713.284
1217.04
1376.98
1424
1414.69
1360.9
1371.47
1221.78
1304.65
1257.28
1205.61
1063.37
1084.06
1004.34
938.605
902.701
868.309
861.619
562.728
364.732
634.91
729.003
751.795
769.03
781.336
779.861
777.959
724.4
656.848
699.202
691.807
685.52
679.896
654.445
657.088
641.793
435.186
366.083
477.793
516.624
530.862
541.852
549.394
552.512
554.937
536.036
509.621
527.915
514.83
506.664
518.618
519.194
515.573
515.347
424.834
424.329
436.399
450.232
450.314
461.881
463.877
464.718
465.652
456.535
460.689
457.91
453.676
450.395
450.227
449.754
452.892
453.895
437.103
437.5
436.164
436.631
435.893
434.386
433.65
432.634
431.217
433.518
433.05
430.716
428.392
429.11
427.848
427.938
427.496
427.614
438.599
436.933
435.236
433.464
431.752
429.804
428.155
426.526
425.102
423.893
422.804
421.684
420.692
419.667
418.871
417.999
417.427
416.715
438.942
436.769
434.757
432.775
430.901
429.053
427.307
425.653
424.07
422.637
421.247
419.965
418.732
417.592
416.471
415.457
414.493
413.649
438.995
436.772
434.669
432.668
430.763
428.952
427.218
425.582
424.005
422.531
421.104
419.771
418.476
417.27
416.094
414.998
413.945
412.96
439
436.774
434.658
432.651
430.742
428.93
427.203
425.564
423.998
422.512
421.091
419.742
418.449
417.222
416.046
414.929
413.86
412.844
439.001
436.772
434.655
432.646
430.735
428.92
427.193
425.55
423.985
422.495
421.075
419.721
418.429
417.198
416.022
414.9
413.829
412.807
439
436.769
434.65
432.638
430.726
428.908
427.179
425.534
423.967
422.476
421.054
419.698
418.405
417.172
415.995
414.872
413.799
412.775
439
436.771
434.653
432.642
430.73
428.913
427.184
425.538
423.972
422.48
421.058
419.702
418.409
417.176
415.999
414.876
413.803
412.778
439.001
436.772
434.656
432.645
430.735
428.917
427.19
425.545
423.98
422.487
421.068
419.714
418.426
417.197
416.028
414.91
413.846
412.827
439.007
436.767
434.665
432.644
430.743
428.921
427.2
425.547
423.989
422.495
421.104
419.772
418.546
417.371
416.288
415.242
414.273
413.321
439.034
436.738
434.716
432.61
430.786
428.902
427.241
425.529
424.034
422.639
421.541
420.532
419.848
419.206
418.782
418.364
418.072
417.697
439.1
436.65
434.888
432.449
431.016
428.779
427.841
425.563
425.307
425.133
425.95
427.402
429.595
432.002
434.701
437.692
440.225
443.039
439.176
436.475
434.862
433.031
431.378
430.799
431.881
433.835
438.181
444.723
452.403
463.653
474.822
486.546
499.523
511.273
523.913
534.465
438.776
436.597
436.629
438.313
442.822
447.693
458.175
471.231
487.664
511.652
527.317
582.493
563.695
576.495
603.823
637.924
676.41
716.158
436.809
444.072
452.959
472.316
499.879
525.276
559.236
587.101
616.684
649.394
692.202
745.094
763.759
826.975
853.461
943.608
925.508
949.117
419.89
497.198
555.805
645.477
739.544
816.019
887.156
963.498
1040.84
1129.68
1214.78
1258.19
1327.54
1512.64
1437.77
1472.39
1516.03
1722.28
490.684
794.451
1170.01
1511.79
1836.76
2136.93
2334.81
2613.42
2894.52
3196.67
3459.72
3672.5
3873.58
4019.13
4175.84
4261.75
4353.07
4395.58
1946.8
4250.78
5942.7
7202.84
8246.29
9003.06
9553.78
9917.58
10139.2
10420.7
10321.7
10414.5
10570.1
10618.6
10773.8
10651.7
10677
10796.6
18117.5
23558.3
25383.7
26344.8
26767.8
26753.5
26595.1
26344.9
25995.4
25630
25261
24899.3
24554.8
24227
23930.1
23651.8
23402.3
23175.6
11463.2
2514.24
2516.41
2518.61
2520.83
2523.07
2525.32
2527.6
2529.9
2532.22
2534.57
2536.93
2539.31
2541.72
2544.15
2546.6
2549.08
2551.57
2554.09
2556.64
2559.2
2561.79
2564.41
2567.05
2569.71
2572.4
2575.12
2577.86
2580.62
2583.41
2586.23
2589.08
2591.95
2594.85
2597.77
2600.73
2603.71
2606.72
2609.76
2612.82
2615.92
2619.05
2622.2
2625.39
2628.61
2631.86
2635.14
2638.45
2641.79
2645.17
2648.58
2652.02
2655.5
2659.01
2662.55
2666.13
2669.74
3192.55
3353.93
2680.8
3297.97
3457.92
3232.11
3428.26
3494.84
3594.82
3674.65
3759.2
3835.07
3911.66
3983.31
4054.49
4122.52
4189.72
4254.7
4318.77
4381.14
4442.61
4502.68
4561.89
4619.86
4676.97
4732.93
4788.04
4842
4895.07
4946.99
4997.98
5047.83
5096.7
5144.46
5191.06
5236.48
5280.64
5323.54
5365.1
5405.35
5444.25
5481.93
5518.47
5554.2
5589.41
5623.3
5656.09
5687.72
5718.18
5747.41
5775.46
5802.25
5827.84
5852.16
5875.27
5897.1
5917.71
5937.05
5955.17
5972.04
5987.68
6002.1
6015.34
6027.44
6038.46
6048.51
6057.68
6066.24
6074.61
6083.57
6088.58
6088.5
6095.2
6091.62
6094.82
6091.1
6091.59
6088.51
6085.28
6080.78
6075.43
6069.14
6061.95
6053.9
6045.03
6035.38
6024.97
6013.8
6001.93
5989.28
5976.03
5962.06
5947.54
5932.42
5916.86
5900.8
5884.41
5867.7
5850.75
5833.68
5816.54
5799.42
5782.35
5765.39
5748.63
5732.11
5715.89
5700.05
5684.67
5669.82
5655.56
5642.04
5629.23
5617.2
5605.91
5595.35
5585.12
5575.04
5564.19
5551.73
5535.41
5511.74
5403.09
11463.2
1993.41
987.252
797.967
676.279
602.682
604.679
601.552
590.109
568.683
544.87
521.811
502.116
486.501
475.895
468.53
468.902
469.877
491.3
521.385
588.003
672.842
769.248
868.456
963.195
1043.17
1102.57
1131.89
1122.93
1091.18
1016.01
916.741
784.588
668.569
584.929
515.095
472.372
456.487
460.882
476.31
507.701
535.216
577.102
665.696
781.65
970.965
1306.97
1641.4
1867.69
2012.46
2082.29
2101.66
2092.19
2060.45
2014.94
1947.33
1902.43
1876.1
1840.37
1734.65
1769.24
1743.1
1716.09
1708.83
1696.9
1695.55
1693.81
1694.44
1696.5
1700.38
1704.92
1710.82
1717.15
1724.28
1731.73
1739.63
1747.73
1756.07
1764.51
1773.05
1781.59
1790.13
1798.61
1806.99
1815.23
1823.31
1831.2
1838.85
1846.26
1853.41
1860.25
1866.78
1872.98
1878.9
1884.53
1889.93
1895.15
1900.34
1905.66
1911.41
1917.9
1925.63
1933.14
1940.44
1947.44
1954.21
1960.72
1966.98
1972.99
1978.77
1984.31
1989.61
1994.68
1999.53
2004.14
2008.53
2012.71
2016.66
2020.42
2023.98
2027.36
2030.57
2033.61
2036.52
2039.29
2041.93
2044.36
2046.26
2047.86
2049.65
2050.52
2051.74
2052.17
2052.56
2051.99
2051.13
2050.03
2048.72
2047.19
2045.45
2043.52
2041.42
2039.1
2036.43
2033.9
2030.67
2027.89
2024.34
2021.17
2017.39
2013.91
2009.95
2006.1
2002.08
1997.98
1993.83
1989.62
1985.45
1981.24
1976.99
1972.83
1968.67
1964.56
1960.51
1956.56
1952.69
1948.93
1945.31
1941.82
1938.52
1935.39
1932.45
1929.8
1927.47
1925.48
1923.91
1922.84
1922.72
1922.61
1932.63
11463.2
2014.78
806.483
610.893
637.587
642.607
618.819
567.3
510.141
455.996
410.039
372.93
342.996
319.077
300.289
285.724
274.955
267.369
263.062
263.85
270.389
282.498
306.135
339.159
382.162
431.332
484.449
533.158
570.443
592.32
587.891
571.636
531.275
479.352
422.729
378.643
368.376
375.948
397.761
437.817
512.5
624.719
776.056
980.368
1170.72
1325.21
1461.32
1558.11
1587.04
1586.24
1537.02
1481.54
1420.17
1363.53
1310.23
1262.07
1225.33
1195.68
1174.7
1149.72
1144.02
1137.08
1125.38
1123.47
1119.99
1119.68
1119.86
1121.19
1123.2
1125.88
1128.97
1132.51
1136.31
1140.37
1144.59
1148.96
1153.42
1157.96
1162.52
1167.1
1171.68
1176.22
1180.72
1185.16
1189.52
1193.8
1197.98
1202.06
1206.04
1209.92
1213.7
1217.38
1220.97
1224.5
1227.97
1231.44
1234.9
1238.42
1242.02
1245.72
1249.52
1253.35
1257.01
1260.55
1263.96
1267.23
1270.38
1273.41
1276.31
1279.08
1281.74
1284.28
1286.69
1288.99
1291.16
1293.22
1295.16
1296.98
1298.69
1300.29
1301.79
1303.18
1304.45
1305.63
1306.68
1307.62
1308.42
1309.03
1309.49
1309.88
1309.97
1310.02
1309.85
1309.5
1308.92
1308.22
1307.39
1306.44
1305.37
1304.18
1302.87
1301.46
1299.93
1298.25
1296.57
1294.64
1292.79
1290.68
1288.64
1286.38
1284.19
1281.83
1279.47
1277.04
1274.56
1272.06
1269.51
1266.96
1264.39
1261.8
1259.23
1256.66
1254.12
1251.59
1249.1
1246.65
1244.25
1241.91
1239.63
1237.43
1235.33
1233.37
1231.59
1230.02
1228.73
1227.83
1227.48
1228.28
1230.3
1241.27
11463.2
2035.32
974.384
910.516
853.693
735.583
626.313
527.325
449.648
391.929
347.664
312.387
284.429
262.459
245.362
232.13
222.025
214.525
209.271
206.047
206.059
207.465
212.767
221.837
236.862
257.505
284.015
313.492
342.627
366.655
383.491
386.31
379.927
366.276
372.378
414.579
494.963
563.148
626.451
703.086
810.564
953.652
1082.66
1164.03
1233.69
1292.1
1315.15
1285.54
1234.55
1190.06
1132.52
1085.91
1042.27
1007.14
977.23
953.157
934.532
920.212
910.203
901.62
897.384
895.168
891.766
891.65
891.53
892.583
894.089
896.125
898.534
901.259
904.223
907.395
910.717
914.168
917.713
921.332
925.001
928.704
932.425
936.148
939.862
943.554
947.216
950.837
954.412
957.934
961.401
964.811
968.166
971.467
974.717
977.918
981.077
984.202
987.302
990.382
993.448
996.502
999.54
1002.55
1005.53
1008.42
1011.22
1013.92
1016.52
1019.03
1021.45
1023.77
1025.99
1028.13
1030.16
1032.1
1033.95
1035.69
1037.33
1038.88
1040.32
1041.66
1042.9
1044.03
1045.07
1046.01
1046.85
1047.58
1048.19
1048.7
1049.08
1049.33
1049.46
1049.48
1049.33
1049.11
1048.74
1048.25
1047.62
1046.89
1046.06
1045.12
1044.09
1042.96
1041.73
1040.42
1039.01
1037.5
1035.95
1034.27
1032.56
1030.74
1028.89
1026.94
1024.97
1022.92
1020.83
1018.7
1016.53
1014.33
1012.1
1009.86
1007.59
1005.32
1003.04
1000.77
998.503
996.25
994.016
991.805
989.624
987.48
985.38
983.334
981.361
979.481
977.731
976.147
974.784
973.746
973.242
973.607
975.232
982.092
11463.2
2267.82
1378.81
1124.68
900.293
704.05
549.42
444.491
371.945
320.102
282.328
254.599
234.23
218.919
206.973
197.638
190.429
185.015
181.164
178.751
178.083
178.621
180.855
184.93
192.168
202.885
217.792
236.424
256.67
274.895
290.812
307.318
342.952
407.807
499.83
584.096
658.123
734.587
819.309
901.549
972.295
1031.55
1081.22
1116.9
1127.64
1102.67
1051.76
1015.24
969.398
931.429
894.425
865.61
840.502
820.888
804.963
792.689
783.467
776.841
772.433
769.721
768.378
768.262
768.418
769.69
771.341
773.499
775.975
778.739
781.727
784.896
788.213
791.651
795.185
798.797
802.467
806.183
809.93
813.695
817.467
821.236
824.991
828.726
832.432
836.103
839.735
843.322
846.863
850.358
853.806
857.208
860.568
863.883
867.158
870.394
873.593
876.754
879.876
882.952
885.975
888.934
891.826
894.638
897.365
900.009
902.567
905.04
907.424
909.721
911.927
914.042
916.061
917.984
919.806
921.527
923.142
924.65
926.05
927.341
928.522
929.592
930.553
931.4
932.135
932.754
933.255
933.635
933.891
934.02
934.031
933.921
933.682
933.337
932.876
932.298
931.605
930.809
929.912
928.914
927.819
926.628
925.345
923.972
922.51
920.96
919.338
917.628
915.858
914.007
912.101
910.124
908.099
906.014
903.884
901.711
899.5
897.255
894.982
892.687
890.374
888.047
885.714
883.378
881.046
878.72
876.405
874.107
871.83
869.582
867.37
865.207
863.102
861.072
859.142
857.346
855.735
854.39
853.472
853.236
854.077
857.78
11463.2
2797.41
1650.03
1160.06
816.549
584.686
447.967
359.634
302.315
264.391
238.184
219.176
204.804
193.666
184.808
177.726
172.163
167.994
165.075
163.403
163.109
163.78
165.733
169.344
174.897
183.165
195.042
211.607
233.225
263.203
305.305
365.365
457.429
556.109
637.646
708.966
778.365
839.316
886.707
925.86
961.924
984.744
989.918
964.358
931.803
899.869
863.007
832.053
801.051
776.072
754.099
736.75
722.438
711.408
702.927
696.778
692.575
690.17
689.163
689.001
689.732
691.28
693.281
695.806
698.657
701.801
705.167
708.716
712.414
716.233
720.151
724.151
728.217
732.335
736.493
740.679
744.882
749.092
753.298
757.493
761.668
765.816
769.931
774.006
778.038
782.023
785.959
789.845
793.68
797.466
801.202
804.889
808.527
812.116
815.655
819.142
822.575
825.948
829.255
832.488
835.647
838.728
841.727
844.643
847.472
850.213
852.862
855.415
857.869
860.22
862.466
864.604
866.627
868.533
870.317
871.977
873.51
874.916
876.193
877.34
878.358
879.244
879.999
880.622
881.111
881.465
881.679
881.75
881.718
881.541
881.234
880.807
880.261
879.595
878.813
877.919
876.917
875.808
874.593
873.276
871.862
870.35
868.745
867.048
865.268
863.404
861.465
859.448
857.364
855.211
852.999
850.728
848.406
846.038
843.628
841.183
838.705
836.202
833.677
831.137
828.586
826.031
823.474
820.919
818.373
815.837
813.319
810.822
808.356
805.928
803.55
801.233
799
796.879
794.917
793.171
791.747
790.88
790.829
792.366
11463.2
3298.83
1711.14
1025.43
656.987
465.269
360.429
301.5
264.361
238.461
219.237
204.319
192.39
182.734
174.847
168.461
163.436
159.703
157.304
156.298
156.659
158.348
161.906
167.491
175.715
187.347
204.438
230.817
270.201
329.79
416.852
508.488
586.172
653.97
716.062
768.453
808.937
841.218
868.906
882.369
883.695
863.544
840.315
814.531
787.82
761.643
735.967
713.98
694.348
678.419
665.142
654.677
646.497
640.494
636.302
633.857
632.853
632.712
633.595
635.287
637.636
640.529
643.815
647.446
651.334
655.435
659.703
664.108
668.626
673.236
677.922
682.67
687.469
692.306
697.171
702.054
706.943
711.828
716.701
721.551
726.372
731.157
735.898
740.591
745.231
749.815
754.34
758.805
763.21
767.554
771.838
776.061
780.223
784.323
788.361
792.335
796.243
800.084
803.854
807.555
811.178
814.717
818.168
821.528
824.791
827.955
831.013
833.96
836.791
839.5
842.078
844.52
846.826
848.991
851.012
852.885
854.608
856.179
857.598
858.864
859.977
860.938
861.745
862.401
862.904
863.254
863.438
863.486
863.413
863.176
862.8
862.29
861.649
860.881
859.986
858.97
857.835
856.582
855.214
853.732
852.133
850.421
848.604
846.689
844.679
842.579
840.394
838.126
835.78
833.36
830.872
828.322
825.715
823.056
820.352
817.607
814.828
812.019
809.186
806.334
803.47
800.597
797.72
794.843
791.971
789.107
786.257
783.426
780.621
777.85
775.123
772.45
769.85
767.346
764.982
762.795
760.849
759.312
758.339
758.262
11463.2
3469.21
1555.09
830.102
527.529
387.578
314.321
271.096
243.093
223.533
208.789
196.911
186.985
178.475
171.312
165.508
161.13
158.346
157.176
157.529
159.444
163.418
170.281
180.474
196.833
221.73
257.824
313.665
387.08
464.968
531.876
591.474
645.516
693.875
733.484
765.693
790.438
801.082
800.174
784.878
768.069
747.864
727.737
707.274
687.054
667.833
650.368
635.54
622.992
612.872
604.79
598.647
594.225
591.454
590.186
589.916
590.665
592.337
594.793
597.893
601.521
605.581
609.983
614.665
619.569
624.652
629.882
635.232
640.681
646.21
651.806
657.455
663.146
668.868
674.609
680.359
686.106
691.839
697.548
703.223
708.856
714.439
719.966
725.43
730.828
736.154
741.41
746.592
751.697
756.728
761.684
766.564
771.369
776.097
780.748
785.32
789.814
794.227
798.561
802.813
806.97
811.027
814.979
818.821
822.548
826.155
829.636
832.984
836.193
839.257
842.171
844.929
847.526
849.957
852.218
854.306
856.216
857.948
859.501
860.875
862.071
863.09
863.931
864.598
865.09
865.404
865.535
865.537
865.379
865.045
864.555
863.917
863.134
862.21
861.147
859.95
858.621
857.162
855.577
853.867
852.038
850.09
848.028
845.857
843.583
841.21
838.743
836.185
833.541
830.817
828.018
825.15
822.221
819.235
816.199
813.119
810
806.849
803.671
800.471
797.256
794.03
790.797
787.561
784.328
781.102
777.889
774.693
771.521
768.381
765.281
762.232
759.248
756.351
753.583
750.925
748.449
746.28
744.477
743.115
11463.2
3377.77
1306.54
678.257
449.301
347.672
293.241
259.593
236.971
220.135
206.795
195.923
186.908
179.472
173.481
168.997
166.19
165.25
166.438
170.225
176.727
187.473
203.781
226.717
261.452
309.211
367.772
427.882
484.51
536.096
582.271
624.194
660.37
691.878
718.204
730.226
731.215
720.724
708.605
692.879
677.46
661.671
646.208
630.843
616.065
602.522
590.72
580.866
572.789
566.445
561.685
558.406
556.682
556.122
556.498
557.928
560.247
563.34
567.099
571.42
576.212
581.393
586.893
592.654
598.627
604.774
611.064
617.474
623.982
630.567
637.214
643.91
650.64
657.39
664.151
670.915
677.664
684.385
691.068
697.701
704.276
710.785
717.222
723.579
729.851
736.029
742.103
748.086
753.98
759.785
765.503
771.131
776.671
782.12
787.479
792.746
797.919
802.995
807.969
812.834
817.585
822.218
826.726
831.103
835.344
839.441
843.388
847.177
850.8
854.25
857.522
860.608
863.503
866.203
868.701
870.995
873.081
874.957
876.625
878.083
879.334
880.38
881.223
881.864
882.305
882.54
882.601
882.503
882.201
881.718
881.064
880.245
879.265
878.129
876.84
875.403
873.82
872.094
870.228
868.227
866.092
863.828
861.44
858.931
856.309
853.578
850.743
847.809
844.781
841.665
838.468
835.197
831.859
828.46
825.007
821.506
817.964
814.386
810.779
807.149
803.501
799.84
796.171
792.498
788.827
785.163
781.512
777.879
774.27
770.692
767.153
763.663
760.234
756.882
753.66
750.538
747.567
744.837
742.356
739.971
11463.2
3020.61
1069.18
572.877
401.838
323.737
281.259
254.643
235.612
221.465
210.468
201.538
194.231
188.483
184.401
182.517
182.954
186.806
194.276
205.386
220.699
242.393
271.71
309.623
353.624
400.311
446.107
488.701
527.9
563.825
595.441
623.861
649.954
665.439
669.455
665.015
657.013
645.506
633.741
621.585
609.876
598.214
586.71
575.463
564.929
555.556
547.585
541.079
535.989
532.271
529.944
528.951
528.868
529.866
531.844
534.72
538.392
542.769
547.761
553.284
559.262
565.626
572.31
579.257
586.422
593.766
601.258
608.878
616.605
624.403
632.256
640.149
648.063
655.979
663.873
671.707
679.497
687.253
694.963
702.614
710.196
717.701
725.122
732.451
739.683
746.813
753.849
760.774
767.587
774.287
780.874
787.35
793.713
799.963
806.099
812.118
818.018
823.797
829.449
834.97
840.356
845.599
850.693
855.63
860.403
865.004
869.425
873.658
877.692
881.521
885.135
888.53
891.699
894.636
897.337
899.797
902.014
903.987
905.717
907.204
908.453
909.465
910.245
910.795
911.112
911.217
911.141
910.84
910.334
909.629
908.736
907.66
906.409
904.986
903.396
901.643
899.732
897.664
895.445
893.078
890.567
887.916
885.129
882.211
879.169
876.009
872.736
869.356
865.874
862.298
858.636
854.894
851.081
847.204
843.27
839.285
835.256
831.19
827.093
822.971
818.831
814.676
810.514
806.348
802.185
798.031
793.892
789.772
785.679
781.619
777.598
773.626
769.711
765.869
762.124
758.486
754.976
751.662
748.523
745.194
11463.2
2582.03
914.881
528.326
386.716
318.54
280.458
257.129
241.522
230.162
221.431
214.667
209.722
207.014
206.707
209.775
216.75
227.75
241.534
259.071
282.441
311.445
344.599
379.967
415.551
449.965
482.401
512.495
539.587
564.467
587.863
605.074
612.242
612.987
609.463
602.569
594.299
585.385
576.676
568.046
559.538
551.008
542.575
534.486
527.096
520.701
515.456
511.413
508.559
507.033
506.571
507.073
508.62
511.149
514.59
518.87
523.907
529.621
535.934
542.773
550.075
557.801
565.86
574.194
582.755
591.498
600.373
609.314
618.281
627.317
636.413
645.551
654.71
663.864
672.997
682.108
691.171
700.176
709.106
717.94
726.672
735.296
743.807
752.199
760.465
768.597
776.589
784.444
792.163
799.748
807.2
814.518
821.703
828.753
835.666
842.441
849.074
855.563
861.903
868.089
874.113
879.967
885.643
891.132
896.424
901.51
906.381
911.027
915.437
919.602
923.512
927.162
930.544
933.654
936.488
939.04
941.31
943.297
945.002
946.429
947.583
948.468
949.089
949.445
949.554
949.442
949.085
948.497
947.685
946.658
945.426
943.995
942.374
940.568
938.581
936.42
934.088
931.59
928.929
926.11
923.137
920.015
916.748
913.341
909.801
906.135
902.347
898.446
894.437
890.329
886.131
881.851
877.496
873.075
868.594
864.061
859.483
854.867
850.22
845.548
840.857
836.152
831.441
826.728
822.023
817.33
812.655
808.004
803.383
798.799
794.256
789.763
785.328
780.963
776.684
772.505
768.44
764.542
760.78
756.599
11463.2
2148.37
796.209
485.537
370.219
314.738
284.25
265.619
253.289
244.666
238.597
234.82
233.509
234.772
239.36
247.746
259.831
274.575
291.988
313.3
337.815
364.333
391.62
418.657
444.764
469.46
492.102
513.362
533.769
550.686
560.388
563.948
564.318
561.627
557.171
551.561
545.603
539.562
533.567
527.525
521.417
515.271
509.266
503.659
498.727
494.683
491.642
489.758
489.017
489.15
490.377
492.6
495.793
499.924
504.964
510.852
517.48
524.777
532.67
541.081
549.91
559.004
568.426
578.166
588.182
598.429
608.861
619.452
630.17
640.943
651.73
662.504
673.253
683.924
694.491
704.943
715.264
725.437
735.467
745.359
755.117
764.742
774.236
783.591
792.796
801.845
810.735
819.466
828.042
836.465
844.735
852.853
860.817
868.625
876.275
883.765
891.091
898.25
905.236
912.042
918.659
925.077
931.284
937.269
943.022
948.531
953.784
958.771
963.479
967.897
972.015
975.825
979.321
982.499
985.354
987.885
990.089
991.967
993.523
994.761
995.689
996.316
996.642
996.69
996.458
995.959
995.2
994.192
992.942
991.462
989.761
987.85
985.735
983.425
980.925
978.24
975.377
972.339
969.132
965.759
962.226
958.537
954.698
950.712
946.587
942.329
937.944
933.441
928.828
924.114
919.308
914.418
909.453
904.419
899.326
894.181
888.992
883.765
878.508
873.227
867.928
862.618
857.304
851.995
846.697
841.419
836.166
830.941
825.752
820.604
815.502
810.452
805.462
800.543
795.706
790.965
786.331
781.843
777.483
772.519
11463.2
1966.81
776.246
481.963
372.016
321.389
294.581
279.002
269.423
263.506
260.575
259.976
262.048
266.999
275.098
286.128
299.621
315.074
332.613
351.934
372.461
393.384
413.979
433.622
451.99
469.728
487.09
502.02
512.639
518.663
521.325
522.058
521.055
518.788
515.737
512.256
508.582
504.769
500.829
496.759
492.623
488.546
484.722
481.377
478.716
476.989
476.291
476.469
477.835
480.166
483.464
487.704
492.85
498.838
505.536
512.896
521.019
529.876
539.404
549.536
560.21
571.414
583.042
595.029
607.319
619.851
632.553
645.37
658.264
671.11
683.828
696.361
708.65
720.695
732.486
744.021
755.308
766.365
777.224
787.908
798.429
808.803
819.041
829.133
839.056
848.809
858.39
867.799
877.043
886.121
895.036
903.784
912.364
920.775
929.012
937.072
944.951
952.644
960.144
967.441
974.523
981.378
987.989
994.346
1000.43
1006.24
1011.74
1016.94
1021.81
1026.34
1030.52
1034.35
1037.81
1040.9
1043.62
1045.96
1047.93
1049.54
1050.77
1051.65
1052.18
1052.38
1052.24
1051.8
1051.05
1049.99
1048.67
1047.07
1045.21
1043.12
1040.79
1038.24
1035.48
1032.52
1029.37
1026.02
1022.5
1018.79
1014.91
1010.87
1006.66
1002.3
997.777
993.112
988.307
983.364
978.291
973.102
967.804
962.407
956.919
951.348
945.701
939.988
934.216
928.395
922.531
916.633
910.707
904.759
898.796
892.827
886.861
880.907
874.974
869.068
863.194
857.356
851.561
845.814
840.117
834.476
828.899
823.398
817.981
812.657
807.441
802.358
797.409
791.696
11463.2
1901.74
748.06
476.471
377.131
331.542
308.121
295.133
287.899
284.563
283.784
285.552
289.897
296.748
305.877
316.871
329.353
343.068
357.847
373.294
388.885
404.166
418.766
433.091
447.437
460.033
469.538
476.532
481.527
484.776
486.374
486.932
486.803
486.051
484.864
483.375
481.661
479.77
477.761
475.727
473.835
472.349
471.321
470.894
471.062
472.106
473.985
476.608
479.79
483.905
489.027
495.16
502.282
510.363
519.407
529.401
540.274
551.972
564.415
577.527
591.239
605.493
620.179
635.207
650.512
666.021
681.569
697.022
712.234
727.143
741.67
755.745
769.318
782.373
794.917
806.973
818.586
829.82
840.796
851.595
862.227
872.736
883.166
893.485
903.617
913.588
923.393
933.035
942.515
951.838
960.997
969.995
978.826
987.487
995.974
1004.28
1012.41
1020.34
1028.07
1035.59
1042.87
1049.91
1056.68
1063.17
1069.36
1075.23
1080.77
1085.95
1090.76
1095.19
1099.21
1102.83
1106.04
1108.82
1111.18
1113.12
1114.65
1115.75
1116.44
1116.74
1116.65
1116.23
1115.42
1114.26
1112.77
1110.96
1108.86
1106.47
1103.81
1100.91
1097.76
1094.4
1090.82
1087.03
1083.05
1078.89
1074.54
1070.02
1065.33
1060.48
1055.47
1050.3
1044.98
1039.53
1033.93
1028.21
1022.36
1016.39
1010.33
1004.17
997.926
991.601
985.203
978.741
972.225
965.663
959.063
952.435
945.784
939.114
932.434
925.756
919.092
912.452
905.843
899.27
892.738
886.251
879.815
873.435
867.11
860.846
854.655
848.549
842.53
836.605
830.779
825.073
819.528
813.095
11463.2
1863.49
744.106
481.578
387.206
345.098
324.069
312.69
306.938
304.715
304.58
307.239
312.128
318.975
327.364
336.841
347.164
358.136
369.535
381.088
392.529
403.745
415.01
424.883
433.109
440.062
446.079
451.083
455.162
458.46
461.131
463.41
465.466
467.129
468.471
469.559
470.459
471.238
471.968
472.714
473.498
474.187
475.291
477.141
479.963
483.781
488.567
494.33
501.189
509.085
518.05
528.096
539.201
551.323
564.45
578.563
593.669
609.691
626.449
643.823
661.707
679.99
698.55
717.252
735.935
754.434
772.66
790.48
807.75
824.346
840.15
855.06
869
881.964
894.044
905.312
915.859
925.77
935.414
945.034
954.523
963.984
973.573
983.224
992.834
1002.33
1011.68
1020.86
1029.89
1038.75
1047.47
1056.04
1064.45
1072.71
1080.81
1088.75
1096.52
1104.12
1111.53
1118.74
1125.73
1132.47
1138.95
1145.14
1151.03
1156.58
1161.79
1166.62
1171.05
1175.06
1178.63
1181.77
1184.44
1186.65
1188.39
1189.67
1190.5
1190.85
1190.76
1190.27
1189.34
1188
1186.26
1184.14
1181.67
1178.85
1175.72
1172.3
1168.59
1164.63
1160.43
1156.01
1151.37
1146.53
1141.51
1136.31
1130.94
1125.41
1119.71
1113.87
1107.87
1101.73
1095.46
1089.05
1082.53
1075.9
1069.18
1062.36
1055.45
1048.46
1041.38
1034.23
1027.01
1019.73
1012.41
1005.05
997.652
990.236
982.809
975.365
967.924
960.499
953.1
945.739
938.419
931.146
923.923
916.754
909.648
902.604
895.622
888.709
881.874
875.127
868.472
861.914
855.455
849.107
842.958
835.836
11463.7
1837.41
741.782
490.052
399.91
359.549
339.638
328.988
323.451
321.203
320.915
323.212
327.502
333.325
340.212
347.803
355.981
364.627
373.636
382.931
392.003
400.501
408.382
416.092
423.332
430.201
436.76
442.978
448.809
454.238
459.238
463.715
467.509
471.042
474.421
477.728
481.053
484.488
488.134
492.098
496.516
501.649
507.608
514.64
523
532.425
542.847
554.276
566.752
580.226
594.718
610.304
626.964
644.496
662.806
681.812
701.374
721.411
741.899
762.758
783.878
805.143
826.425
847.584
868.472
888.936
908.843
928.05
946.425
963.842
980.191
995.37
1009.26
1021.72
1033.05
1043.38
1052.8
1061.46
1069.56
1077.16
1084.41
1091.59
1099.36
1107.4
1115.52
1123.52
1131.33
1138.95
1146.41
1153.72
1160.9
1167.96
1174.91
1181.73
1188.45
1195.06
1201.56
1207.94
1214.19
1220.3
1226.22
1231.94
1237.41
1242.64
1247.58
1252.2
1256.49
1260.42
1263.95
1267.05
1269.67
1271.86
1273.57
1274.78
1275.49
1275.7
1275.47
1274.73
1273.53
1271.87
1269.76
1267.21
1264.24
1260.88
1257.16
1253.08
1248.67
1243.97
1238.98
1233.75
1228.27
1222.58
1216.68
1210.61
1204.36
1197.95
1191.38
1184.67
1177.82
1170.83
1163.71
1156.46
1149.1
1141.63
1134.05
1126.39
1118.66
1110.86
1102.97
1095.01
1086.98
1078.89
1070.73
1062.53
1054.3
1046.03
1037.74
1029.45
1021.15
1012.88
1004.64
996.423
988.25
980.127
972.056
964.041
956.085
948.192
940.366
932.607
924.917
917.309
909.789
902.365
895.038
887.816
880.696
873.681
866.912
859.125
11462.8
1822.59
744.499
499.746
410.619
371.015
351.539
340.789
335.071
332.678
332.246
334.149
337.98
343.21
349.551
356.789
364.591
372.822
381.371
390.032
398.844
407.716
416.451
425.198
433.883
442.554
451.245
459.928
468.453
476.836
485.103
493.312
501.617
510.02
518.619
527.517
536.835
546.696
557.221
568.505
580.665
593.832
607.975
623.045
638.809
655.331
672.67
690.752
709.494
728.83
748.754
769.163
789.76
810.598
831.668
852.948
874.387
895.939
917.569
939.216
960.816
982.29
1003.54
1024.44
1044.88
1064.72
1083.83
1102.1
1119.39
1135.63
1150.76
1164.75
1177.55
1189.05
1199.5
1208.98
1217.47
1225.18
1232.01
1237.91
1243.33
1248.67
1254.2
1259.56
1264.7
1269.6
1274.29
1278.82
1283.24
1287.61
1291.94
1296.26
1300.56
1304.86
1309.16
1313.46
1317.77
1322.05
1326.32
1330.52
1334.6
1338.53
1342.24
1345.76
1349.05
1352.06
1354.77
1357.16
1359.2
1360.82
1361.87
1362.61
1362.88
1362.6
1361.77
1360.55
1358.89
1356.75
1354.15
1351.1
1347.62
1343.72
1339.44
1334.78
1329.77
1324.44
1318.79
1312.87
1306.69
1300.27
1293.64
1286.81
1279.8
1272.63
1265.3
1257.83
1250.23
1242.49
1234.63
1226.65
1218.55
1210.34
1202.03
1193.62
1185.1
1176.51
1167.84
1159.09
1150.27
1141.38
1132.43
1123.43
1114.37
1105.28
1096.16
1087.02
1077.87
1068.71
1059.57
1050.47
1041.41
1032.39
1023.42
1014.51
1005.65
996.848
988.116
979.455
970.87
962.372
953.97
945.663
937.454
929.348
921.345
913.455
905.673
897.998
890.611
882.214
11461.8
1813.12
749.134
504.466
416.468
379.22
360.503
350.459
345.685
344.067
344.301
347.47
352.513
359.11
366.932
376.017
386.035
396.284
407.301
419.21
431.902
444.953
458.55
472.686
487.323
502.407
517.864
533.578
549.56
565.832
582.386
599.282
616.595
634.299
652.48
671.252
690.757
711.167
732.683
755.193
778.636
802.904
827.781
853.006
878.314
903.679
929.397
954.909
979.824
1003.95
1027.01
1048.77
1069.42
1089.13
1108.04
1126.28
1143.97
1161.25
1178.22
1194.94
1211.47
1227.78
1243.83
1259.56
1274.86
1289.62
1303.72
1317.01
1329.39
1340.77
1351.1
1360.44
1369.02
1377.06
1384.25
1390.48
1395.56
1399.73
1403.24
1406.26
1409.33
1412.27
1414.2
1415.42
1416.24
1416.8
1417.25
1417.66
1418.1
1418.62
1419.26
1420.03
1420.96
1422.05
1423.3
1424.72
1426.29
1427.97
1429.75
1431.59
1433.34
1435.06
1436.54
1437.94
1439.17
1440.19
1440.97
1441.47
1441.71
1441.66
1440.8
1439.75
1438.26
1436.35
1434.01
1431.25
1428.09
1424.5
1420.51
1416.11
1411.33
1406.2