/*--------------------------------*- C++ -*----------------------------------*\
  =========                 |
  \\      /  F ield         | OpenFOAM: The Open Source CFD Toolbox
   \\    /   O peration     | Website:  https://openfoam.org
    \\  /    A nd           | Version:  13
     \\/     M anipulation  |
\*---------------------------------------------------------------------------*/
FoamFile
{
    format      ascii;
    class       volScalarField;
    location    "300";
    object      p;
}
// * * * * * * * * * * * * * * * * * * * * * * * * * * * * * * * * * * * * * //

dimensions      [0 2 -2 0 0 0 0];

internalField   nonuniform List<scalar> 
12225
(
-4.78329
-5.62848
-6.03886
-6.18535
-6.33339
-6.50126
-6.65537
-6.7883
-6.90823
-7.02152
-7.11524
-7.18209
-7.23379
-7.28564
-7.34011
-7.39642
-7.45796
-7.54389
-5.06038
-5.66325
-6.01442
-6.16086
-6.30659
-6.47128
-6.62171
-6.75342
-6.87166
-6.97984
-7.0722
-7.14673
-7.20429
-7.25238
-7.30245
-7.35613
-7.4161
-7.46384
-5.2382
-5.65685
-5.99516
-6.16953
-6.31957
-6.47967
-6.62737
-6.75614
-6.86951
-6.96965
-7.05647
-7.12925
-7.18719
-7.23601
-7.28455
-7.33529
-7.38692
-7.42602
-5.37768
-5.68118
-6.00123
-6.18488
-6.32775
-6.4763
-6.61796
-6.74266
-6.85146
-6.94769
-7.03341
-7.10677
-7.16703
-7.21851
-7.26719
-7.316
-7.36359
-7.40122
-5.51132
-5.7528
-6.02212
-6.19904
-6.33536
-6.47555
-6.61269
-6.73453
-6.84086
-6.93551
-7.02016
-7.09305
-7.15381
-7.20591
-7.25407
-7.30086
-7.3452
-7.38154
-5.62434
-5.80662
-6.03975
-6.20969
-6.3428
-6.47657
-6.60806
-6.72589
-6.82926
-6.9213
-7.00337
-7.07456
-7.13489
-7.18732
-7.2355
-7.28111
-7.32332
-7.35887
-5.72729
-5.86144
-6.06168
-6.22356
-6.35353
-6.48086
-6.60573
-6.71893
-6.81885
-6.90789
-6.98737
-7.05697
-7.11704
-7.16983
-7.21795
-7.26258
-7.30332
-7.3383
-5.81873
-5.91958
-6.09053
-6.24198
-6.36734
-6.48803
-6.60598
-6.71398
-6.80993
-6.89571
-6.97251
-7.04036
-7.09979
-7.15238
-7.19998
-7.24355
-7.28301
-7.31736
-5.9012
-5.97883
-6.1237
-6.26375
-6.38337
-6.49716
-6.60797
-6.71033
-6.80208
-6.88452
-6.95868
-7.02477
-7.0833
-7.13537
-7.18229
-7.22487
-7.26327
-7.29701
-5.97665
-6.03724
-6.15887
-6.28628
-6.3992
-6.50605
-6.60987
-6.70668
-6.79438
-6.87367
-6.94534
-7.00966
-7.06703
-7.11828
-7.16437
-7.20597
-7.24341
-7.27652
-6.04491
-6.0927
-6.19449
-6.30868
-6.41406
-6.51404
-6.61123
-6.70277
-6.7866
-6.86287
-6.93211
-6.99457
-7.0506
-7.10084
-7.14604
-7.18677
-7.22339
-7.2559
-6.10115
-6.14046
-6.22699
-6.32926
-6.42723
-6.52097
-6.61233
-6.69914
-6.7794
-6.85287
-6.91987
-6.98059
-7.03534
-7.0846
-7.12898
-7.16899
-7.20497
-7.23701
-6.15171
-6.18474
-6.2584
-6.34954
-6.4401
-6.52779
-6.61355
-6.69571
-6.77241
-6.84309
-6.90784
-6.96684
-7.02027
-7.06854
-7.11213
-7.15146
-7.18689
-7.21854
-6.20331
-6.23077
-6.29241
-6.37212
-6.4545
-6.53555
-6.61524
-6.69227
-6.76493
-6.83241
-6.89462
-6.9516
-7.00351
-7.05061
-7.09328
-7.13188
-7.16674
-7.19804
-6.25393
-6.27651
-6.32755
-6.39622
-6.46998
-6.544
-6.61737
-6.68892
-6.75713
-6.82107
-6.88042
-6.93515
-6.9853
-7.03107
-7.07271
-7.11053
-7.14483
-7.17579
-6.30057
-6.31912
-6.36139
-6.42011
-6.48541
-6.55237
-6.61945
-6.68547
-6.74907
-6.80926
-6.86558
-6.91787
-6.96612
-7.01042
-7.05096
-7.08797
-7.1217
-7.15235
-6.33907
-6.35456
-6.39013
-6.44073
-6.49857
-6.55908
-6.62039
-6.68126
-6.74044
-6.79698
-6.8503
-6.90018
-6.94652
-6.98936
-7.0288
-7.06502
-7.09822
-7.1286
-6.36335
-6.37687
-6.40814
-6.45327
-6.50575
-6.56137
-6.61821
-6.67501
-6.73062
-6.78412
-6.83492
-6.88274
-6.92744
-6.96902
-7.00752
-7.04309
-7.07586
-7.10602
-6.36375
-6.37675
-6.40687
-6.45039
-6.501
-6.55461
-6.6094
-6.66423
-6.71803
-6.76991
-6.81932
-6.86599
-6.90979
-6.95069
-6.98872
-7.024
-7.05665
-7.08687
-6.332
-6.34679
-6.38053
-6.42813
-6.48197
-6.53785
-6.59431
-6.65048
-6.70525
-6.75781
-6.80768
-6.8547
-6.89876
-6.93988
-6.9781
-7.01357
-7.0464
-7.07681
-6.28575
-6.3037
-6.34411
-6.39907
-6.45868
-6.51878
-6.57875
-6.63787
-6.69503
-6.74937
-6.80064
-6.84874
-6.89366
-6.93543
-6.97418
-7.01004
-7.0432
-7.07386
-6.22608
-6.24945
-6.30056
-6.36614
-6.43316
-6.49858
-6.56317
-6.62632
-6.68661
-6.74336
-6.79651
-6.8461
-6.89218
-6.93487
-6.97431
-7.01072
-7.0443
-7.07531
-6.15509
-6.18723
-6.25417
-6.33311
-6.40805
-6.47915
-6.54899
-6.61656
-6.68016
-6.73939
-6.79453
-6.84571
-6.89302
-6.93663
-6.97677
-7.01371
-7.04769
-7.07899
-6.07353
-6.11938
-6.20853
-6.30251
-6.38491
-6.46194
-6.53755
-6.60953
-6.67612
-6.73759
-6.79447
-6.84703
-6.89536
-6.93975
-6.98052
-7.0179
-7.05222
-7.08375
-5.98135
-6.04809
-6.16606
-6.27469
-6.36289
-6.4461
-6.52825
-6.6049
-6.67445
-6.73811
-6.79674
-6.85051
-6.89968
-6.94461
-6.98566
-7.0232
-7.05752
-7.08889
-5.87878
-5.97675
-6.12891
-6.25016
-6.34246
-6.43168
-6.52009
-6.60112
-6.67356
-6.73959
-6.80019
-6.85546
-6.90578
-6.95167
-6.99351
-7.03171
-7.06671
-7.09899
-5.7672
-5.90986
-6.09625
-6.22514
-6.3226
-6.42007
-6.51501
-6.59996
-6.67484
-6.74238
-6.80397
-6.85981
-6.91036
-6.95616
-6.9978
-7.03585
-7.07087
-7.10377
-5.63593
-5.86843
-6.07911
-6.19872
-6.29888
-6.40738
-6.51139
-6.60241
-6.68188
-6.7529
-6.81688
-6.87421
-6.92553
-6.97146
-7.01282
-7.05053
-7.08541
-7.11871
-5.43757
-5.84933
-6.09156
-6.19004
-6.28351
-6.39581
-6.503
-6.59521
-6.67573
-6.74806
-6.81304
-6.871
-6.9227
-6.96893
-7.01043
-7.04779
-7.08196
-7.11299
-5.17917
-5.77658
-6.08232
-6.19033
-6.29174
-6.41301
-6.52574
-6.61942
-6.70015
-6.77259
-6.83743
-6.89529
-6.9466
-6.9923
-7.03285
-7.06818
-7.09973
-7.12641
-7.99457
-7.99466
-7.9947
-7.9947
-7.99445
-7.99335
-7.99106
-7.98806
-7.98523
-7.9835
-7.98369
-7.98595
-7.98989
-7.9949
-8.00032
-8.00557
-8.01017
-8.01373
-8.01609
-8.01742
-8.01804
-8.01812
-8.01779
-8.01724
-8.01666
-8.01621
-8.01592
-8.01572
-8.01548
-8.01514
-8.01466
-8.01406
-8.01333
-8.01243
-8.01131
-8.01009
-8.009
-8.00848
-8.00898
-8.01057
-8.01278
-8.01479
-8.01608
-8.01675
-8.01732
-8.0185
-8.02113
-8.02501
-8.02878
-8.03167
-8.03541
-8.0438
-8.06115
-8.08798
-8.12345
-8.16807
-8.22227
-8.28523
-8.35503
-8.42897
-8.50482
-8.58056
-8.6546
-8.72567
-8.79244
-8.85421
-8.91063
-8.96159
-9.00704
-9.04712
-9.0819
-9.11156
-9.1362
-9.15601
-9.17106
-9.18153
-9.18745
-9.18897
-9.18611
-9.17901
-9.16768
-9.15221
-9.13261
-9.10895
-9.08114
-9.04919
-9.01298
-8.97248
-8.92759
-8.87823
-8.82432
-8.7657
-8.70222
-8.63372
-8.5601
-8.48119
-8.39682
-8.30663
-8.21027
-8.10737
-7.9976
-7.88073
-7.75665
-7.62525
-7.48642
-7.34006
-7.18611
-7.02459
-6.85553
-6.67904
-6.49528
-6.30443
-6.10675
-5.90248
-5.69196
-5.47549
-5.25347
-5.02629
-4.79433
-4.55793
-4.31748
-4.07335
-3.82598
-3.57578
-3.32317
-3.06847
-2.81205
-2.55421
-2.29527
-2.03549
-1.77521
-1.51468
-1.25419
-0.993899
-0.733814
-0.47407
-0.214997
0.0432021
0.300353
0.556291
0.810852
1.06387
1.31517
1.56459
1.81198
2.05719
2.30007
2.54047
2.77829
3.01338
3.24564
3.47498
3.7013
3.92454
4.14464
4.36154
4.57523
4.78566
4.99283
5.19674
5.39739
5.5948
5.78899
5.97999
6.16784
6.35258
6.53426
6.71295
6.88868
7.06154
7.23155
7.39879
7.5633
7.72511
7.88426
8.04088
8.19523
8.34717
8.49999
8.64384
-7.99566
-7.99583
-7.99617
-7.99652
-7.99647
-7.99565
-7.99389
-7.99175
-7.99027
-7.99023
-7.99192
-7.9952
-7.99967
-8.00477
-8.00999
-8.0149
-8.01916
-8.02257
-8.02502
-8.02634
-8.02647
-8.02558
-8.02395
-8.02193
-8.01989
-8.01811
-8.01676
-8.01583
-8.01517
-8.01458
-8.01396
-8.01329
-8.01257
-8.01181
-8.011
-8.01022
-8.00976
-8.01012
-8.01159
-8.01393
-8.01634
-8.0179
-8.01816
-8.01742
-8.01596
-8.01403
-8.0129
-8.01477
-8.02101
-8.02898
-8.03674
-8.04721
-8.06305
-8.08631
-8.12057
-8.16744
-8.22597
-8.29356
-8.36712
-8.44416
-8.52216
-8.599
-8.67291
-8.74217
-8.80625
-8.86515
-8.91872
-8.96703
-9.01012
-9.04814
-9.08118
-9.10938
-9.13284
-9.15167
-9.16595
-9.17579
-9.18124
-9.18238
-9.17926
-9.17198
-9.16056
-9.14507
-9.12555
-9.10202
-9.07447
-9.04287
-9.00713
-8.96722
-8.92305
-8.87455
-8.8216
-8.76408
-8.70177
-8.6345
-8.56202
-8.48407
-8.40037
-8.31068
-8.21479
-8.11247
-8.00354
-7.88781
-7.76506
-7.63505
-7.49763
-7.35269
-7.20014
-7.04
-6.87229
-6.69712
-6.51462
-6.32498
-6.12844
-5.92527
-5.71577
-5.50027
-5.27914
-5.05278
-4.82157
-4.58587
-4.34605
-4.10252
-3.85569
-3.60599
-3.35381
-3.09951
-2.84343
-2.58588
-2.32716
-2.06756
-1.80732
-1.54669
-1.28587
-1.02511
-0.76476
-0.505008
-0.245944
0.0122492
0.269403
0.525373
0.77999
1.03309
1.28451
1.53408
1.78165
2.02707
2.27019
2.51088
2.74899
2.98441
3.21703
3.44675
3.67347
3.89713
4.11765
4.335
4.54912
4.76
4.96762
5.17198
5.37308
5.57093
5.76555
5.95698
6.14525
6.3304
6.51247
6.69154
6.86765
7.04086
7.21123
7.37883
7.54372
7.70598
7.86565
8.02285
8.17795
8.33025
8.48545
8.62848
-7.99685
-7.99685
-7.99689
-7.99697
-7.997
-7.99697
-7.99709
-7.99782
-7.99959
-8.00252
-8.00646
-8.01113
-8.01617
-8.0212
-8.02592
-8.03008
-8.03348
-8.03603
-8.03766
-8.03833
-8.038
-8.03675
-8.0347
-8.03203
-8.02889
-8.02547
-8.02196
-8.01854
-8.01538
-8.01261
-8.0103
-8.00846
-8.00698
-8.00575
-8.00483
-8.0046
-8.00561
-8.00817
-8.01192
-8.01563
-8.01781
-8.01749
-8.01508
-8.01207
-8.01011
-8.00978
-8.01097
-8.01538
-8.02494
-8.03945
-8.05876
-8.08374
-8.11502
-8.15341
-8.19963
-8.25325
-8.31294
-8.37697
-8.44348
-8.51103
-8.57834
-8.64432
-8.70799
-8.76845
-8.82516
-8.87787
-8.92636
-8.97055
-9.01035
-9.04574
-9.07672
-9.10329
-9.12547
-9.1433
-9.15679
-9.166
-9.17095
-9.1717
-9.1683
-9.16079
-9.14924
-9.13368
-9.11415
-9.09069
-9.06329
-9.03193
-8.99655
-8.9571
-8.91351
-8.8657
-8.81358
-8.75699
-8.69574
-8.62965
-8.55846
-8.48189
-8.39964
-8.31145
-8.21707
-8.11631
-8.00898
-7.89489
-7.7738
-7.64549
-7.50978
-7.36654
-7.21569
-7.05721
-6.89114
-6.71756
-6.53659
-6.34843
-6.1533
-5.95147
-5.74322
-5.52892
-5.3089
-5.08358
-4.85332
-4.61851
-4.3795
-4.13674
-3.89063
-3.64161
-3.39005
-3.13633
-2.88078
-2.62374
-2.3655
-2.10634
-1.84652
-1.58629
-1.32587
-1.0655
-0.805476
-0.546001
-0.287181
-0.0291888
0.227812
0.48366
0.738195
0.991245
1.24265
1.49225
1.73988
1.98541
2.22867
2.46954
2.70787
2.94355
3.17645
3.40648
3.63355
3.85756
4.07847
4.29621
4.51074
4.72202
4.93005
5.13481
5.3363
5.53452
5.72952
5.92129
6.10988
6.29532
6.47768
6.65698
6.8333
7.0067
7.17723
7.34495
7.50994
7.67226
7.83203
7.98938
8.14493
8.29724
8.45489
8.59302
-7.99787
-7.99762
-7.99728
-7.99726
-7.99819
-8.00041
-8.0038
-8.00808
-8.01296
-8.01816
-8.02346
-8.02864
-8.03354
-8.038
-8.04186
-8.04503
-8.04739
-8.0489
-8.04954
-8.04927
-8.04812
-8.0461
-8.04331
-8.03982
-8.03568
-8.03098
-8.02583
-8.02036
-8.01479
-8.00937
-8.0044
-8.00008
-7.9966
-7.99424
-7.99346
-7.99483
-7.99839
-8.00326
-8.00784
-8.01065
-8.01109
-8.00974
-8.00814
-8.00792
-8.01019
-8.01555
-8.02473
-8.03867
-8.058
-8.08291
-8.11311
-8.14821
-8.18782
-8.2318
-8.27988
-8.33162
-8.38641
-8.44356
-8.50218
-8.56145
-8.62054
-8.6787
-8.73519
-8.78938
-8.84077
-8.88898
-8.93374
-8.97483
-9.01211
-9.04545
-9.07477
-9.1
-9.12111
-9.13806
-9.15085
-9.15949
-9.16398
-9.16436
-9.16067
-9.15296
-9.14126
-9.12563
-9.10611
-9.08273
-9.0555
-9.02441
-8.98942
-8.95047
-8.90751
-8.86044
-8.80918
-8.75355
-8.69338
-8.62844
-8.5585
-8.48328
-8.40247
-8.31582
-8.22307
-8.12398
-8.01834
-7.90593
-7.78652
-7.65988
-7.52582
-7.38421
-7.23496
-7.07804
-6.91347
-6.74134
-6.56175
-6.3749
-6.18101
-5.98033
-5.77316
-5.55985
-5.34077
-5.11629
-4.8868
-4.65268
-4.41433
-4.17218
-3.92665
-3.67817
-3.42712
-3.17387
-2.91877
-2.66215
-2.40431
-2.14555
-1.8861
-1.62623
-1.36616
-1.10614
-0.846413
-0.587179
-0.328576
-0.0707751
0.186064
0.441781
0.696215
0.949198
1.20057
1.45017
1.69785
1.94345
2.18684
2.42786
2.6664
2.90231
3.13548
3.3658
3.59319
3.81756
4.03883
4.25695
4.47188
4.68356
4.892
5.09716
5.29905
5.49766
5.69303
5.88516
6.0741
6.25986
6.44251
6.62208
6.79863
6.97221
7.1429
7.31075
7.47585
7.63826
7.79811
7.95547
8.1111
8.26291
8.42097
8.55225
-7.99988
-7.99935
-7.99896
-8.00006
-8.00353
-8.00882
-8.01504
-8.02155
-8.02794
-8.03395
-8.03949
-8.04448
-8.0489
-8.05268
-8.05576
-8.05806
-8.05955
-8.06017
-8.05992
-8.05878
-8.05676
-8.05388
-8.05019
-8.04574
-8.04056
-8.03473
-8.0283
-8.0214
-8.01416
-8.00685
-7.99981
-7.99352
-7.9886
-7.98582
-7.98585
-7.98856
-7.99265
-7.99673
-7.9999
-8.00184
-8.003
-8.00448
-8.00771
-8.01383
-8.02365
-8.0379
-8.05702
-8.0809
-8.10887
-8.14054
-8.17553
-8.21353
-8.25444
-8.29822
-8.34471
-8.39366
-8.44466
-8.49721
-8.55071
-8.60454
-8.65811
-8.71084
-8.76219
-8.81165
-8.85882
-8.90335
-8.94493
-8.98332
-9.01832
-9.04975
-9.07746
-9.10135
-9.12131
-9.1373
-9.14926
-9.15717
-9.16103
-9.16087
-9.15671
-9.1486
-9.13659
-9.12072
-9.10106
-9.07764
-9.05047
-9.01957
-8.98488
-8.9464
-8.90402
-8.85769
-8.80727
-8.75262
-8.69352
-8.62977
-8.5611
-8.48724
-8.4079
-8.3228
-8.23165
-8.1342
-8.03019
-7.91937
-7.8015
-7.67635
-7.54373
-7.4035
-7.25557
-7.0999
-6.93651
-6.76546
-6.5869
-6.40097
-6.20792
-6.00799
-5.80151
-5.58881
-5.37026
-5.14624
-4.91715
-4.68337
-4.44536
-4.2035
-3.95828
-3.71007
-3.4593
-3.2063
-2.95146
-2.69509
-2.43751
-2.17899
-1.91981
-1.66019
-1.40039
-1.14062
-0.881134
-0.622094
-0.363678
-0.106046
0.150638
0.406224
0.660547
0.913444
1.16475
1.41432
1.662
1.90764
2.15109
2.39222
2.63088
2.86695
3.10031
3.33085
3.55848
3.78311
4.00466
4.22308
4.43831
4.65032
4.85907
5.06455
5.26675
5.46568
5.66135
5.85378
6.04298
6.229
6.41188
6.59166
6.7684
6.94216
7.11298
7.28093
7.44609
7.60852
7.76834
7.92555
8.08092
8.23182
8.38926
8.51327
-8.00363
-8.00279
-8.00312
-8.00675
-8.01301
-8.02025
-8.02762
-8.03467
-8.04118
-8.04707
-8.05234
-8.05698
-8.06094
-8.06419
-8.06667
-8.06833
-8.06915
-8.06909
-8.06816
-8.06634
-8.06364
-8.0601
-8.05574
-8.05057
-8.04461
-8.0379
-8.03053
-8.02265
-8.01443
-8.00615
-7.99831
-7.99156
-7.98673
-7.9845
-7.9847
-7.98632
-7.98834
-7.9905
-7.99314
-7.99677
-8.00183
-8.00886
-8.01884
-8.0328
-8.05102
-8.07333
-8.09927
-8.12848
-8.16053
-8.19512
-8.23206
-8.27118
-8.31242
-8.35565
-8.40072
-8.44742
-8.49542
-8.54438
-8.59388
-8.64349
-8.6928
-8.74136
-8.78875
-8.83457
-8.87846
-8.92008
-8.95911
-8.99529
-9.02837
-9.05815
-9.08442
-9.10704
-9.12589
-9.14085
-9.15188
-9.15894
-9.16202
-9.16113
-9.15632
-9.14763
-9.13511
-9.11884
-9.09887
-9.07526
-9.04805
-9.01723
-8.9828
-8.94471
-8.9029
-8.85729
-8.80773
-8.75407
-8.69609
-8.63355
-8.5662
-8.49373
-8.41587
-8.33229
-8.24271
-8.14682
-8.04435
-7.93501
-7.81853
-7.69469
-7.56328
-7.42418
-7.27727
-7.12252
-6.95995
-6.78962
-6.61166
-6.42625
-6.2336
-6.034
-5.82776
-5.61523
-5.39678
-5.17281
-4.94371
-4.70992
-4.47186
-4.22999
-3.98475
-3.73655
-3.48578
-3.23282
-2.97803
-2.72173
-2.46425
-2.20585
-1.94681
-1.68736
-1.42773
-1.16816
-0.908857
-0.649996
-0.391755
-0.134289
0.122238
0.377677
0.631864
0.884644
1.13585
1.38535
1.63297
1.87859
2.12205
2.3632
2.60192
2.83807
3.07152
3.30219
3.52996
3.75474
3.97646
4.19507
4.4105
4.6227
4.83166
5.03735
5.23975
5.43888
5.63472
5.82731
6.01666
6.20282
6.38582
6.5657
6.74252
6.91633
7.08717
7.25512
7.42023
7.58258
7.74223
7.89914
8.05402
8.20381
8.36045
8.47741
-8.00845
-8.00789
-8.01
-8.01601
-8.02354
-8.03109
-8.03829
-8.04499
-8.05114
-8.05673
-8.0617
-8.06602
-8.06964
-8.0725
-8.07456
-8.07578
-8.07614
-8.07562
-8.07421
-8.07193
-8.06878
-8.06479
-8.05997
-8.05428
-8.04773
-8.04042
-8.03252
-8.02424
-8.01583
-8.00766
-8.00031
-7.9945
-7.99068
-7.98853
-7.98726
-7.98661
-7.98702
-7.98925
-7.99367
-8.00042
-8.01002
-8.02313
-8.03996
-8.06039
-8.08412
-8.11086
-8.14026
-8.17203
-8.206
-8.24198
-8.27984
-8.31939
-8.3605
-8.40302
-8.44681
-8.49169
-8.53742
-8.58377
-8.63044
-8.67711
-8.72346
-8.76916
-8.81382
-8.85712
-8.89869
-8.93823
-8.97541
-9.00994
-9.04154
-9.06999
-9.09506
-9.11656
-9.13434
-9.14829
-9.15833
-9.16443
-9.16657
-9.16479
-9.15913
-9.14966
-9.13645
-9.11958
-9.09914
-9.07519
-9.04779
-9.01695
-8.98269
-8.94496
-8.90369
-8.85878
-8.8101
-8.75746
-8.70063
-8.63936
-8.57337
-8.50235
-8.426
-8.34396
-8.25593
-8.16156
-8.06055
-7.95257
-7.83736
-7.71466
-7.58428
-7.44607
-7.29992
-7.1458
-6.98372
-6.81376
-6.63603
-6.45075
-6.2581
-6.05842
-5.85201
-5.63924
-5.42049
-5.19618
-4.9667
-4.73254
-4.49412
-4.25194
-4.0064
-3.75795
-3.50695
-3.25383
-2.9989
-2.74254
-2.48501
-2.22664
-1.96764
-1.70829
-1.44879
-1.18937
-0.93022
-0.671532
-0.413459
-0.156167
0.100198
0.35547
0.609501
0.862125
1.1132
1.36257
1.6101
1.85564
2.09905
2.34017
2.57887
2.81501
3.04849
3.27919
3.50701
3.73185
3.95365
4.17233
4.38786
4.60016
4.80921
5.01499
5.21748
5.41667
5.61259
5.80522
5.99462
6.18079
6.3638
6.54366
6.72045
6.8942
7.06498
7.23282
7.3978
7.55993
7.71932
7.87578
8.03002
8.1786
8.33449
8.4449
-8.01241
-8.01287
-8.01715
-8.0242
-8.03156
-8.0386
-8.04528
-8.05157
-8.05741
-8.06275
-8.0675
-8.07161
-8.075
-8.07762
-8.07944
-8.0804
-8.0805
-8.07971
-8.07803
-8.07547
-8.07206
-8.0678
-8.06265
-8.0566
-8.04979
-8.04239
-8.0346
-8.02667
-8.0189
-8.01176
-8.00573
-8.00097
-7.99715
-7.99381
-7.99106
-7.9897
-7.99053
-7.99421
-8.00126
-8.01193
-8.02619
-8.04388
-8.06477
-8.08863
-8.11515
-8.14408
-8.1752
-8.20831
-8.24327
-8.2799
-8.31805
-8.35757
-8.39832
-8.44018
-8.48302
-8.52666
-8.57095
-8.61567
-8.66061
-8.7055
-8.75007
-8.79402
-8.83702
-8.87876
-8.91891
-8.95713
-8.99312
-9.02655
-9.05714
-9.08461
-9.10872
-9.12927
-9.14607
-9.15902
-9.16802
-9.17306
-9.17413
-9.17128
-9.16459
-9.15414
-9.14003
-9.12237
-9.10127
-9.07682
-9.04909
-9.01813
-8.98396
-8.94652
-8.90577
-8.86157
-8.81379
-8.7622
-8.70657
-8.64663
-8.58206
-8.51255
-8.43774
-8.35727
-8.27078
-8.17791
-8.07829
-7.9716
-7.85755
-7.73586
-7.60634
-7.46882
-7.32321
-7.16947
-7.0076
-6.8377
-6.65989
-6.47437
-6.28139
-6.08126
-5.87432
-5.66095
-5.44155
-5.21654
-4.98638
-4.75154
-4.5125
-4.26972
-4.02365
-3.77471
-3.52332
-3.26985
-3.01465
-2.75808
-2.50043
-2.24198
-1.98299
-1.72368
-1.46427
-1.20497
-0.945965
-0.68744
-0.429543
-0.172436
0.083737
0.338816
0.592653
0.845089
1.09599
1.3452
1.59259
1.83801
2.08132
2.32234
2.56096
2.79704
3.03047
3.26113
3.48893
3.71376
3.93556
4.15425
4.36978
4.58209
4.79117
4.99696
5.19946
5.39864
5.59453
5.78713
5.97647
6.16258
6.34551
6.52529
6.70197
6.87561
7.04625
7.21392
7.37869
7.54055
7.69957
7.85552
8.00905
8.15641
8.31159
8.41611
-8.01382
-8.0157
-8.02143
-8.02838
-8.03516
-8.04172
-8.04805
-8.05409
-8.05977
-8.06498
-8.06964
-8.07367
-8.077
-8.07956
-8.0813
-8.0822
-8.08223
-8.08137
-8.07962
-8.07698
-8.07347
-8.06907
-8.06378
-8.0577
-8.05102
-8.04396
-8.03676
-8.0297
-8.02311
-8.01719
-8.01192
-8.00711
-8.00266
-7.99878
-7.99614
-7.99573
-7.99836
-8.0045
-8.01432
-8.0277
-8.04445
-8.06439
-8.08722
-8.11269
-8.14054
-8.17054
-8.20251
-8.23627
-8.27166
-8.30851
-8.34671
-8.38611
-8.4266
-8.46805
-8.51035
-8.55334
-8.59688
-8.6408
-8.6849
-8.72894
-8.77266
-8.8158
-8.85805
-8.89909
-8.9386
-8.97623
-9.01165
-9.04453
-9.07454
-9.10139
-9.12479
-9.14454
-9.16045
-9.1724
-9.18031
-9.18416
-9.184
-9.17989
-9.17195
-9.16031
-9.14509
-9.12644
-9.10449
-9.07937
-9.05119
-9.02
-8.98584
-8.94868
-8.90842
-8.86495
-8.81808
-8.7676
-8.71323
-8.65468
-8.59161
-8.52366
-8.45044
-8.37157
-8.28663
-8.19523
-8.09696
-7.9915
-7.8785
-7.75771
-7.62891
-7.49192
-7.34666
-7.19305
-7.03116
-6.86104
-6.68287
-6.49683
-6.30321
-6.10232
-5.89455
-5.68026
-5.4599
-5.23391
-5.00281
-4.76704
-4.52715
-4.28355
-4.03677
-3.78717
-3.53523
-3.28128
-3.02572
-2.76885
-2.51101
-2.25243
-1.99339
-1.7341
-1.47476
-1.21557
-0.956721
-0.698364
-0.440666
-0.183765
0.0721807
0.327033
0.580632
0.832841
1.08351
1.33252
1.57972
1.82498
2.06812
2.30901
2.54749
2.78344
3.01675
3.24731
3.47501
3.69977
3.92149
4.14011
4.35557
4.56783
4.77684
4.98258
5.185
5.3841
5.57988
5.77236
5.96158
6.14756
6.33034
6.50998
6.6865
6.85998
7.03042
7.19789
7.36238
7.52393
7.68254
7.83793
7.99073
8.13693
8.29142
8.3908
-8.01141
-8.01454
-8.02064
-8.02719
-8.03366
-8.04003
-8.04626
-8.05226
-8.05796
-8.06323
-8.06799
-8.07214
-8.0756
-8.0783
-8.08018
-8.08121
-8.08134
-8.08055
-8.07883
-8.07621
-8.0727
-8.06832
-8.06313
-8.05729
-8.05104
-8.0446
-8.03823
-8.03208
-8.02621
-8.02057
-8.0152
-8.01018
-8.00581
-8.00265
-8.00143
-8.00284
-8.00735
-8.01522
-8.02657
-8.04132
-8.0593
-8.08029
-8.10403
-8.13024
-8.15868
-8.18916
-8.2215
-8.25553
-8.29108
-8.32803
-8.36626
-8.40564
-8.44606
-8.48741
-8.52957
-8.57243
-8.61584
-8.65964
-8.70364
-8.74761
-8.79131
-8.83446
-8.87675
-8.91786
-8.95744
-8.99513
-9.03057
-9.06339
-9.09322
-9.11974
-9.14265
-9.16172
-9.17676
-9.18765
-9.19434
-9.19684
-9.19524
-9.18966
-9.18025
-9.1672
-9.15067
-9.13083
-9.10786
-9.08192
-9.05317
-9.02168
-8.9875
-8.95058
-8.91084
-8.86812
-8.82222
-8.7729
-8.71987
-8.66277
-8.60127
-8.53494
-8.46338
-8.38612
-8.30274
-8.21279
-8.11585
-8.01155
-7.89954
-7.77955
-7.65134
-7.51474
-7.36964
-7.216
-7.05386
-6.88331
-6.70452
-6.51772
-6.32319
-6.12129
-5.9124
-5.69695
-5.47539
-5.24821
-5.01593
-4.77907
-4.53812
-4.29357
-4.04591
-3.79555
-3.54293
-3.28843
-3.03242
-2.77521
-2.51712
-2.25839
-1.99928
-1.74
-1.48074
-1.22167
-0.962977
-0.704817
-0.447343
-0.190692
0.0649896
0.319564
0.572883
0.824814
1.07522
1.32397
1.57095
1.81601
2.05895
2.29964
2.53791
2.77368
3.0068
3.2372
3.46474
3.68935
3.91092
4.12941
4.34474
4.55687
4.76576
4.97138
5.17367
5.37261
5.56821
5.76051
5.94954
6.13533
6.31792
6.49735
6.67368
6.84695
7.01717
7.18438
7.34858
7.50976
7.66793
7.82274
7.97482
8.11991
8.27375
8.36874
-8.0036
-8.00749
-8.01351
-8.02
-8.02662
-8.03317
-8.03959
-8.04583
-8.05178
-8.05734
-8.06241
-8.06687
-8.07063
-8.07361
-8.07574
-8.07697
-8.07726
-8.0766
-8.075
-8.07251
-8.06915
-8.06498
-8.06013
-8.05478
-8.0491
-8.04324
-8.03729
-8.03132
-8.02542
-8.01964
-8.01418
-8.00937
-8.0057
-8.00367
-8.00379
-8.00655
-8.01233
-8.02136
-8.03371
-8.04932
-8.06802
-8.08958
-8.11374
-8.14028
-8.16897
-8.19965
-8.23213
-8.26627
-8.30193
-8.33899
-8.37732
-8.41681
-8.45738
-8.49893
-8.54136
-8.58455
-8.62837
-8.67264
-8.71719
-8.7618
-8.80619
-8.85008
-8.89311
-8.93495
-8.97521
-9.0135
-9.04942
-9.08255
-9.11252
-9.13896
-9.16154
-9.17999
-9.19414
-9.20387
-9.20918
-9.21012
-9.20685
-9.19954
-9.18844
-9.17375
-9.15568
-9.13446
-9.11029
-9.08341
-9.05399
-9.02215
-8.98792
-8.95128
-8.91208
-8.87016
-8.8253
-8.77722
-8.72559
-8.67005
-8.61018
-8.54554
-8.47568
-8.40007
-8.31826
-8.22974
-8.13409
-8.0309
-7.91982
-7.80054
-7.67282
-7.53648
-7.39139
-7.23756
-7.07499
-6.90383
-6.72423
-6.53647
-6.34084
-6.13773
-5.92753
-5.71073
-5.48779
-5.25927
-5.02567
-4.78758
-4.54546
-4.29986
-4.05122
-3.80004
-3.54668
-3.2916
-3.0351
-2.77753
-2.51917
-2.2603
-2.00113
-1.74188
-1.4827
-1.22377
-0.965257
-0.707327
-0.450107
-0.193746
0.0616328
0.315881
0.568877
0.820479
1.07057
1.31903
1.56575
1.81057
2.05328
2.29369
2.5317
2.76719
3.00007
3.23021
3.45753
3.68191
3.90328
4.12155
4.33669
4.54863
4.75735
4.96279
5.1649
5.36362
5.55899
5.75104
5.93982
6.12536
6.30771
6.48691
6.66301
6.83604
7.00602
7.17295
7.33682
7.49762
7.65533
7.80954
7.96092
8.10497
8.25814
8.3495
-7.98905
-7.99314
-7.99934
-8.00648
-8.01378
-8.02089
-8.02778
-8.03446
-8.04087
-8.04692
-8.05246
-8.05738
-8.06156
-8.06491
-8.06736
-8.06886
-8.06939
-8.06897
-8.06763
-8.0654
-8.06232
-8.05849
-8.05401
-8.04901
-8.04358
-8.03783
-8.03184
-8.02571
-8.01959
-8.0137
-8.00838
-8.00402
-8.00099
-7.99977
-8.00082
-8.00457
-8.01132
-8.02125
-8.03438
-8.05062
-8.06979
-8.09168
-8.11607
-8.14276
-8.17156
-8.20231
-8.23487
-8.26909
-8.30485
-8.34203
-8.38054
-8.42031
-8.46127
-8.50332
-8.54639
-8.59033
-8.63501
-8.68027
-8.72592
-8.77171
-8.81736
-8.86255
-8.90691
-8.95003
-8.9915
-9.03088
-9.06769
-9.10151
-9.13188
-9.1584
-9.18071
-9.19852
-9.21164
-9.22002
-9.22369
-9.22277
-9.21749
-9.20816
-9.19509
-9.17854
-9.15876
-9.13597
-9.11045
-9.0825
-9.05236
-9.02016
-8.98594
-8.9496
-8.91104
-8.87002
-8.82629
-8.77953
-8.7294
-8.67548
-8.61732
-8.55444
-8.48631
-8.41237
-8.3321
-8.245
-8.1506
-8.04849
-7.93829
-7.81967
-7.69237
-7.55619
-7.41104
-7.25688
-7.09379
-6.92188
-6.74137
-6.55251
-6.35565
-6.15118
-5.93956
-5.72129
-5.49689
-5.26693
-5.03197
-4.79256
-4.54922
-4.3025
-4.05287
-3.80081
-3.54673
-3.29102
-3.03404
-2.77611
-2.51751
-2.2585
-1.99929
-1.74008
-1.48101
-1.22225
-0.963958
-0.706298
-0.449388
-0.193364
0.0616498
0.31552
0.568125
0.819336
1.06904
1.31715
1.56357
1.80812
2.05054
2.29064
2.52833
2.7635
2.99606
3.2259
3.45292
3.67702
3.89811
4.11612
4.33101
4.5427
4.7512
4.95644
5.15833
5.3568
5.55189
5.74363
5.9321
6.11734
6.29941
6.47834
6.65418
6.82697
6.9967
7.16334
7.32687
7.48726
7.64449
7.79813
7.94883
8.09191
8.2444
8.33285
-7.96713
-7.97112
-7.97818
-7.98668
-7.9951
-8.00298
-8.01047
-8.01774
-8.02481
-8.03155
-8.03778
-8.04334
-8.04809
-8.05191
-8.05478
-8.05667
-8.05758
-8.05753
-8.05654
-8.05463
-8.05186
-8.04828
-8.04397
-8.03903
-8.03353
-8.02757
-8.02127
-8.01482
-8.00848
-8.00254
-7.99733
-7.99321
-7.99063
-7.99006
-7.9919
-7.99651
-8.00411
-8.01482
-8.02858
-8.04531
-8.06482
-8.08693
-8.11144
-8.13819
-8.16703
-8.19782
-8.23043
-8.26473
-8.3006
-8.33796
-8.37674
-8.4169
-8.45839
-8.50113
-8.54505
-8.59003
-8.63595
-8.68264
-8.72986
-8.77735
-8.82478
-8.87178
-8.91796
-8.96284
-9.00595
-9.04679
-9.08484
-9.11957
-9.15047
-9.17706
-9.19894
-9.21581
-9.22756
-9.23419
-9.23581
-9.23262
-9.225
-9.21338
-9.19818
-9.17968
-9.15811
-9.13369
-9.10679
-9.07777
-9.04695
-9.0145
-8.98036
-8.94447
-8.90661
-8.86655
-8.824
-8.77863
-8.73004
-8.67779
-8.62137
-8.56027
-8.49387
-8.42158
-8.34282
-8.25712
-8.16397
-8.06295
-7.95363
-7.83567
-7.70878
-7.57275
-7.42749
-7.27297
-7.10931
-6.93662
-6.75515
-6.56515
-6.36702
-6.16115
-5.94807
-5.72827
-5.50239
-5.27096
-5.03461
-4.79385
-4.5493
-4.30142
-4.0508
-3.79785
-3.54304
-3.28673
-3.0293
-2.77103
-2.51225
-2.25314
-1.99396
-1.73483
-1.47594
-1.21742
-0.959452
-0.702151
-0.445648
-0.190057
0.0644911
0.317887
0.57
0.820727
1.06995
1.3176
1.56363
1.80786
2.04993
2.28967
2.52699
2.76182
2.99404
3.22355
3.45024
3.67402
3.8948
4.1125
4.32707
4.53848
4.74672
4.95174
5.15339
5.3516
5.54638
5.7378
5.92593
6.11085
6.2926
6.47124
6.64682
6.81936
6.98884
7.15519
7.31837
7.47836
7.63511
7.78817
7.93821
8.08041
8.23216
8.31842
-7.93823
-7.94248
-7.95102
-7.96137
-7.97109
-7.97975
-7.98791
-7.99602
-8.00408
-8.01185
-8.01903
-8.02542
-8.03086
-8.03525
-8.03862
-8.04099
-8.04239
-8.04278
-8.04216
-8.04054
-8.03794
-8.03443
-8.03004
-8.02487
-8.01901
-8.01261
-8.00587
-7.99903
-7.99237
-7.98621
-7.98096
-7.97704
-7.97488
-7.97492
-7.9775
-7.98289
-7.99123
-8.00258
-8.01687
-8.03398
-8.05377
-8.07605
-8.10065
-8.12742
-8.15621
-8.18693
-8.21946
-8.25369
-8.28957
-8.32704
-8.36608
-8.40667
-8.44878
-8.49236
-8.53735
-8.58365
-8.63113
-8.6796
-8.7288
-8.7784
-8.82802
-8.87722
-8.92552
-8.9724
-9.01731
-9.05969
-9.09894
-9.13447
-9.16568
-9.19205
-9.2131
-9.22858
-9.23845
-9.24288
-9.24208
-9.23635
-9.22618
-9.2122
-9.19492
-9.17463
-9.15146
-9.12562
-9.09751
-9.06759
-9.03628
-9.00369
-8.96975
-8.9343
-8.89714
-8.858
-8.81657
-8.77254
-8.72547
-8.67487
-8.62021
-8.56087
-8.49621
-8.42555
-8.34833
-8.26405
-8.17222
-8.07236
-7.964
-7.84676
-7.72032
-7.58446
-7.43909
-7.28422
-7.11996
-6.94647
-6.76399
-6.57281
-6.37331
-6.16597
-5.95132
-5.72996
-5.50251
-5.26958
-5.03177
-4.78965
-4.54382
-4.2948
-4.04316
-3.78935
-3.53384
-3.277
-3.01919
-2.7607
-2.50183
-2.24277
-1.98372
-1.72482
-1.46624
-1.20814
-0.950666
-0.693908
-0.437993
-0.183033
0.0708601
0.323578
0.575005
0.825035
1.07356
1.32052
1.56591
1.80956
2.05108
2.29031
2.52717
2.76159
2.99341
3.22254
3.44887
3.67231
3.89273
4.11007
4.32428
4.53533
4.74325
4.94801
5.14941
5.34737
5.54188
5.73302
5.92087
6.10548
6.28692
6.46526
6.64057
6.81289
6.98215
7.14824
7.31111
7.47072
7.62703
7.77954
7.92896
8.07032
8.22132
8.30605
-7.90437
-7.90951
-7.92003
-7.93254
-7.94369
-7.95331
-7.9623
-7.97125
-7.98031
-7.98924
-7.99765
-8.00526
-8.01165
-8.01663
-8.02042
-8.02326
-8.0251
-8.02589
-8.02556
-8.02409
-8.02149
-8.0178
-8.01307
-8.00741
-8.00097
-7.99393
-7.98654
-7.97908
-7.97193
-7.96548
-7.96017
-7.95643
-7.95467
-7.95525
-7.95845
-7.96447
-7.97339
-7.98522
-7.99989
-8.01727
-8.0372
-8.05951
-8.08404
-8.11066
-8.13925
-8.16971
-8.20196
-8.23595
-8.27167
-8.30914
-8.34837
-8.38939
-8.43219
-8.47674
-8.52299
-8.57083
-8.62009
-8.67052
-8.72181
-8.77359
-8.8254
-8.87673
-8.92702
-8.97571
-9.02218
-9.0658
-9.10588
-9.14178
-9.17285
-9.19849
-9.21822
-9.23174
-9.23922
-9.24111
-9.23775
-9.22938
-9.21661
-9.20033
-9.18116
-9.15941
-9.13515
-9.10854
-9.07986
-9.04959
-9.01801
-8.98526
-8.95132
-8.91609
-8.87939
-8.84095
-8.80052
-8.75774
-8.71217
-8.66327
-8.61047
-8.55307
-8.49039
-8.42171
-8.3464
-8.26387
-8.1736
-8.07506
-7.9678
-7.8514
-7.72549
-7.58987
-7.44442
-7.28919
-7.12429
-6.94993
-6.76634
-6.57387
-6.37289
-6.16395
-5.94761
-5.72456
-5.49539
-5.26081
-5.02137
-4.77777
-4.53052
-4.28028
-4.02753
-3.77283
-3.51657
-3.25919
-3.00099
-2.7423
-2.48336
-2.22439
-1.96553
-1.70694
-1.4488
-1.19125
-0.934387
-0.678313
-0.423132
-0.168959
0.0841169
0.335983
0.586545
0.83568
1.08329
1.32925
1.57348
1.81585
2.05627
2.29459
2.53068
2.76437
2.99554
3.22404
3.44977
3.67262
3.89249
4.10929
4.32297
4.53347
4.74086
4.9451
5.14606
5.34362
5.53782
5.72869
5.9163
6.10065
6.28179
6.45984
6.63488
6.80699
6.97607
7.14196
7.3046
7.46394
7.61989
7.77192
7.92078
8.06136
8.21157
8.29541
-7.86778
-7.87411
-7.88714
-7.90215
-7.91438
-7.92436
-7.93419
-7.94456
-7.95504
-7.96523
-7.97485
-7.98358
-7.99093
-7.99665
-8.00105
-8.00446
-8.00683
-8.00802
-8.00793
-8.00652
-8.00377
-7.99971
-7.99443
-7.98805
-7.98074
-7.97278
-7.96447
-7.95618
-7.94835
-7.94141
-7.93582
-7.93201
-7.93033
-7.93113
-7.93461
-7.94092
-7.9501
-7.96213
-7.97689
-7.99427
-8.01407
-8.03616
-8.06039
-8.08665
-8.11481
-8.14482
-8.17665
-8.21029
-8.24579
-8.2832
-8.32261
-8.36404
-8.40749
-8.45295
-8.50038
-8.54965
-8.60056
-8.65281
-8.70604
-8.75981
-8.8136
-8.86684
-8.9189
-8.96912
-9.01683
-9.06133
-9.10184
-9.13762
-9.16793
-9.19219
-9.20999
-9.22124
-9.22632
-9.22611
-9.22101
-9.21112
-9.19711
-9.1796
-9.1592
-9.13605
-9.1105
-9.08269
-9.05316
-9.02216
-8.99001
-8.95673
-8.92243
-8.88711
-8.85062
-8.81274
-8.7732
-8.73164
-8.68755
-8.64036
-8.5894
-8.53398
-8.47334
-8.40679
-8.33357
-8.25301
-8.16448
-8.06748
-7.9615
-7.8461
-7.72092
-7.58573
-7.44041
-7.28501
-7.11967
-6.9446
-6.76008
-6.56647
-6.3642
-6.15383
-5.93599
-5.71135
-5.48061
-5.24443
-5.00349