/*--------------------------------*- C++ -*----------------------------------*\
  =========                 |
  \\      /  F ield         | OpenFOAM: The Open Source CFD Toolbox
   \\    /   O peration     | Website:  https://openfoam.org
    \\  /    A nd           | Version:  13
     \\/     M anipulation  |
\*---------------------------------------------------------------------------*/
FoamFile
{
    format      ascii;
    class       surfaceScalarField;
    location    "300";
    object      phi;
}
// * * * * * * * * * * * * * * * * * * * * * * * * * * * * * * * * * * * * * //

dimensions      [0 3 -1 0 0 0 0];

internalField   nonuniform List<scalar> 
24170
(
3.04012e-06
1.48266e-07
2.87816e-06
1.61824e-07
2.72639e-06
1.51714e-07
2.59217e-06
1.34215e-07
2.47487e-06
1.17234e-07
2.37487e-06
9.99872e-08
2.29134e-06
8.3505e-08
2.22303e-06
6.82795e-08
2.16956e-06
5.34544e-08
2.12803e-06
4.15026e-08
2.09583e-06
3.21908e-08
2.07112e-06
2.4692e-08
2.05162e-06
1.94837e-08
2.03682e-06
1.47916e-08
2.02782e-06
9.00133e-09
2.02389e-06
3.94222e-09
2.02624e-06
-2.34265e-09
-9.06815e-09
2.03532e-06
3.49425e-06
7.12387e-08
3.54372e-06
1.12192e-07
3.56905e-06
1.26227e-07
3.57748e-06
1.25704e-07
3.57299e-06
1.21666e-07
3.55935e-06
1.13608e-07
3.5364e-06
1.06425e-07
3.50522e-06
9.94398e-08
3.46875e-06
8.98975e-08
3.42885e-06
8.13839e-08
3.38986e-06
7.11645e-08
3.35458e-06
5.99562e-08
3.3226e-06
5.14519e-08
3.29255e-06
4.48366e-08
3.26337e-06
3.81773e-08
3.23609e-06
3.1234e-08
3.21141e-06
2.23555e-08
1.45624e-08
3.18779e-06
3.67581e-06
5.79295e-08
3.69561e-06
9.23076e-08
3.71333e-06
1.0848e-07
3.73106e-06
1.07983e-07
3.74828e-06
1.04399e-07
3.76364e-06
9.82373e-08
3.7773e-06
9.27542e-08
3.78877e-06
8.79635e-08
3.79688e-06
8.17853e-08
3.80223e-06
7.60227e-08
3.80454e-06
6.88459e-08
3.80388e-06
6.06073e-08
3.80151e-06
5.3821e-08
3.79802e-06
4.83198e-08
3.79319e-06
4.30059e-08
3.78719e-06
3.72488e-08
3.77907e-06
3.04737e-08
2.41237e-08
3.7695e-06
3.93473e-06
4.85801e-08
3.94491e-06
8.21229e-08
3.95288e-06
1.00454e-07
3.95966e-06
1.01153e-07
3.96638e-06
9.76461e-08
3.97245e-06
9.21631e-08
3.9786e-06
8.65988e-08
3.9852e-06
8.13637e-08
3.99164e-06
7.53379e-08
3.99818e-06
6.94774e-08
4.00422e-06
6.27919e-08
4.00923e-06
5.55887e-08
4.01368e-06
4.93718e-08
4.01788e-06
4.41179e-08
4.02175e-06
3.91402e-08
4.02503e-06
3.39661e-08
4.02713e-06
2.8385e-08
2.34096e-08
4.02785e-06
4.2177e-06
3.79987e-08
4.22319e-06
7.66298e-08
4.23083e-06
9.28363e-08
4.23803e-06
9.39774e-08
4.24426e-06
9.13875e-08
4.24926e-06
8.71569e-08
4.2537e-06
8.21551e-08
4.25806e-06
7.7006e-08
4.26214e-06
7.12583e-08
4.26618e-06
6.54265e-08
4.26991e-06
5.9063e-08
4.27306e-06
5.24392e-08
4.27593e-06
4.64986e-08
4.27876e-06
4.12861e-08
4.28154e-06
3.63586e-08
4.2841e-06
3.14146e-08
4.28605e-06
2.64238e-08
2.20408e-08
4.28742e-06
4.51705e-06
3.00394e-08
4.52435e-06
6.93278e-08
4.53291e-06
8.42701e-08
4.54036e-06
8.64921e-08
4.54655e-06
8.51752e-08
4.55171e-06
8.19916e-08
4.55622e-06
7.76383e-08
4.56045e-06
7.27781e-08
4.56432e-06
6.73946e-08
4.56794e-06
6.17954e-08
4.57117e-06
5.58305e-08
4.57385e-06
4.97549e-08
4.5762e-06
4.41436e-08
4.57842e-06
3.90689e-08
4.5805e-06
3.42773e-08
4.58232e-06
2.95933e-08
4.58369e-06
2.50555e-08
2.10477e-08
4.58468e-06
4.839e-06
2.37541e-08
4.84587e-06
6.24543e-08
4.85416e-06
7.60127e-08
4.86153e-06
7.91366e-08
4.86778e-06
7.8909e-08
4.87317e-06
7.65877e-08
4.87796e-06
7.2852e-08
4.88235e-06
6.83836e-08
4.88635e-06
6.33886e-08
4.89006e-06
5.80844e-08
4.89336e-06
5.2531e-08
4.89617e-06
4.69339e-08
4.89865e-06
4.16665e-08
4.9009e-06
3.68105e-08
4.90294e-06
3.22381e-08
4.90468e-06
2.78515e-08
4.90604e-06
2.36919e-08
1.99992e-08
4.90708e-06
5.18406e-06
1.92679e-08
5.19101e-06
5.55051e-08
5.19882e-06
6.81941e-08
5.2059e-06
7.20284e-08
5.21221e-06
7.25766e-08
5.21785e-06
7.09348e-08
5.22292e-06
6.77707e-08
5.22758e-06
6.37154e-08
5.23182e-06
5.91457e-08
5.23569e-06
5.42109e-08
5.23914e-06
4.90736e-08
5.24216e-06
4.39167e-08
5.24483e-06
3.89895e-08
5.24724e-06
3.43952e-08
5.2494e-06
3.00807e-08
5.25125e-06
2.60002e-08
5.25274e-06
2.2192e-08
1.87963e-08
5.25393e-06
5.55435e-06
1.625e-08
5.56167e-06
4.81671e-08
5.56921e-06
6.06711e-08
5.57603e-06
6.52221e-08
5.58233e-06
6.62582e-08
5.58813e-06
6.51261e-08
5.59344e-06
6.24575e-08
5.59833e-06
5.8816e-08
5.60282e-06
5.46537e-08
5.6069e-06
5.01273e-08
5.61055e-06
4.54198e-08
5.61376e-06
4.06942e-08
5.61662e-06
3.61351e-08
5.61917e-06
3.1837e-08
5.62145e-06
2.78052e-08
5.62341e-06
2.4032e-08
5.62505e-06
2.05454e-08
1.74274e-08
5.6264e-06
5.95209e-06
1.39278e-08
5.95908e-06
4.11804e-08
5.96628e-06
5.34492e-08
5.97302e-06
5.84632e-08
5.97938e-06
5.98681e-08
5.98533e-06
5.91537e-08
5.99085e-06
5.69248e-08
5.99595e-06
5.3712e-08
6.00065e-06
4.99394e-08
6.00495e-06
4.58252e-08
6.00882e-06
4.1546e-08
6.01226e-06
3.72511e-08
6.01532e-06
3.30782e-08
6.01803e-06
2.91201e-08
6.02044e-06
2.53977e-08
6.02253e-06
2.19349e-08
6.02431e-06
1.87508e-08
1.59015e-08
6.02583e-06
6.37882e-06
1.19118e-08
6.38495e-06
3.50355e-08
6.39182e-06
4.65816e-08
6.39854e-06
5.17437e-08
6.40498e-06
5.34171e-08
6.41107e-06
5.30488e-08
6.41678e-06
5.12055e-08
6.42208e-06
4.84052e-08
6.42699e-06
4.50274e-08
6.43149e-06
4.13238e-08
6.43556e-06
3.74674e-08
6.43922e-06
3.35905e-08
6.44248e-06
2.98129e-08
6.44539e-06
2.62114e-08
6.44796e-06
2.28236e-08
6.45022e-06
1.96749e-08
6.45217e-06
1.67922e-08
1.42045e-08
6.45385e-06
5.7424e-06
1.03382e-08
5.74692e-06
3.05209e-08
5.75239e-06
4.11082e-08
5.75798e-06
4.61486e-08
5.76343e-06
4.79519e-08
5.76866e-06
4.78051e-08
5.7736e-06
4.62567e-08
5.77822e-06
4.37793e-08
5.78251e-06
4.07398e-08
5.78645e-06
3.73793e-08
5.79004e-06
3.38741e-08
5.79328e-06
3.03414e-08
5.7962e-06
2.68984e-08
5.7988e-06
2.3602e-08
5.80112e-06
2.05031e-08
5.80317e-06
1.7625e-08
5.80496e-06
1.49897e-08
1.26294e-08
5.80653e-06
6.9998e-06
8.69177e-09
7.00443e-06
2.58848e-08
7.01033e-06
3.52074e-08
7.01655e-06
3.99239e-08
7.02275e-06
4.17492e-08
7.02878e-06
4.17766e-08
7.03452e-06
4.051e-08
7.03992e-06
3.83782e-08
7.04495e-06
3.5702e-08
7.0496e-06
3.27292e-08
7.05386e-06
2.96057e-08
7.05773e-06
2.64671e-08
7.06123e-06
2.33897e-08
7.06438e-06
2.04525e-08
7.0672e-06
1.76829e-08
7.0697e-06
1.51192e-08
7.07192e-06
1.27685e-08
1.06705e-08
7.07387e-06
8.53254e-06
6.99979e-09
8.53724e-06
2.11834e-08
8.5435e-06
2.89559e-08
8.55031e-06
3.3118e-08
8.55723e-06
3.48295e-08
8.56405e-06
3.49521e-08
8.57062e-06
3.39382e-08
8.57685e-06
3.21427e-08
8.5827e-06
2.98594e-08
8.58812e-06
2.72924e-08
8.59313e-06
2.45993e-08
8.5977e-06
2.18804e-08
8.60187e-06
1.92234e-08
8.60564e-06
1.66788e-08
8.60903e-06
1.42894e-08
8.61207e-06
1.20744e-08
8.61479e-06
1.00527e-08
8.24608e-09
8.6172e-06
1.04009e-05
5.30972e-09
1.04057e-05
1.64216e-08
1.04122e-05
2.24228e-08
1.04195e-05
2.57849e-08
1.04272e-05
2.72125e-08
1.04348e-05
2.73282e-08
1.04422e-05
2.65039e-08
1.04493e-05
2.50307e-08
1.0456e-05
2.31378e-08
1.04623e-05
2.10074e-08
1.04681e-05
1.87697e-08
1.04735e-05
1.65137e-08
1.04784e-05
1.43126e-08
1.04829e-05
1.22076e-08
1.04869e-05
1.02361e-08
1.04906e-05
8.41395e-09
1.04939e-05
6.75369e-09
5.28086e-09
1.04969e-05
1.26785e-05
3.63256e-09
1.26833e-05
1.16004e-08
1.26901e-05
1.56431e-08
1.26979e-05
1.79559e-08
1.27062e-05
1.88968e-08
1.27147e-05
1.88777e-08
1.2723e-05
1.81618e-08
1.27311e-05
1.69652e-08
1.27387e-05
1.54571e-08
1.2746e-05
1.37756e-08
1.27527e-05
1.20179e-08
1.2759e-05
1.02623e-08
1.27647e-05
8.55275e-09
1.277e-05
6.93248e-09
1.27748e-05
5.41888e-09
1.27792e-05
4.03206e-09
1.27832e-05
2.77362e-09
1.66973e-09
1.27868e-05
1.54549e-05
1.94517e-09
1.54598e-05
6.65479e-09
1.54669e-05
8.56301e-09
1.54753e-05
9.57019e-09
1.54843e-05
9.81359e-09
1.54937e-05
9.50832e-09
1.55031e-05
8.80147e-09
1.55122e-05
7.82444e-09
1.5521e-05
6.67877e-09
1.55293e-05
5.44795e-09
1.55371e-05
4.19589e-09
1.55444e-05
2.96707e-09
1.55511e-05
1.79359e-09
1.55574e-05
6.96593e-10
1.55631e-05
-3.09522e-10
1.55684e-05
-1.21812e-09
1.55732e-05
-2.02591e-09
-2.71818e-09
1.55776e-05
1.88394e-05
1.66833e-10
1.88447e-05
1.39119e-09
1.88523e-05
9.19393e-10
1.88615e-05
3.61981e-10
1.88716e-05
-3.09949e-10
1.88821e-05
-1.05046e-09
1.88928e-05
-1.84715e-09
1.89033e-05
-2.65898e-09
1.89134e-05
-3.46227e-09
1.89231e-05
-4.23198e-09
1.89322e-05
-4.95366e-09
1.89408e-05
-5.61351e-09
1.89488e-05
-6.20552e-09
1.89562e-05
-6.72426e-09
1.89631e-05
-7.16933e-09
1.89694e-05
-7.54125e-09
1.89752e-05
-7.84288e-09
-8.06643e-09
1.89806e-05
2.29654e-05
-1.89761e-09
2.29715e-05
-4.7083e-09
2.29804e-05
-7.98243e-09
2.29911e-05
-1.04152e-08
2.3003e-05
-1.21965e-08
2.30154e-05
-1.34934e-08
2.3028e-05
-1.44363e-08
2.30404e-05
-1.50936e-08
2.30525e-05
-1.55266e-08
2.3064e-05
-1.57856e-08
2.30749e-05
-1.59091e-08
2.30852e-05
-1.59248e-08
2.30949e-05
-1.58525e-08
2.31039e-05
-1.57094e-08
2.31122e-05
-1.55081e-08
2.31199e-05
-1.52606e-08
2.31271e-05
-1.49738e-08
-1.46511e-08
2.31337e-05
1.68124e-05
-3.62221e-09
1.68173e-05
-9.62952e-09
1.68244e-05
-1.50636e-08
1.68328e-05
-1.88269e-08
1.68419e-05
-2.13416e-08
1.68514e-05
-2.29793e-08
1.68609e-05
-2.39674e-08
1.68702e-05
-2.44589e-08
1.68793e-05
-2.45726e-08
1.68879e-05
-2.44264e-08
1.68961e-05
-2.40863e-08
1.69037e-05
-2.36147e-08
1.69109e-05
-2.30424e-08
1.69176e-05
-2.24075e-08
1.69238e-05
-2.17256e-08
1.69296e-05
-2.10191e-08
1.69349e-05
-2.02967e-08
-1.95668e-08
1.69398e-05
1.46364e-05
-5.45673e-09
1.46415e-05
-1.47182e-08
1.46485e-05
-2.21662e-08
1.46567e-05
-2.70005e-08
1.46654e-05
-3.00375e-08
1.46742e-05
-3.18683e-08
1.46831e-05
-3.2804e-08
1.46916e-05
-3.30492e-08
1.46999e-05
-3.2815e-08
1.47077e-05
-3.22481e-08
1.4715e-05
-3.14634e-08
1.47219e-05
-3.05224e-08
1.47284e-05
-2.94888e-08
1.47344e-05
-2.83945e-08
1.47399e-05
-2.72755e-08
1.4745e-05
-2.61484e-08
1.47498e-05
-2.50293e-08
-2.39283e-08
1.47541e-05
1.27422e-05
-7.56343e-09
1.27478e-05
-2.02907e-08
1.27552e-05
-2.95602e-08
1.27633e-05
-3.51356e-08
1.27717e-05
-3.84709e-08
1.27802e-05
-4.03563e-08
1.27885e-05
-4.11168e-08
1.27964e-05
-4.10381e-08
1.2804e-05
-4.03984e-08
1.28111e-05
-3.94006e-08
1.28178e-05
-3.81615e-08
1.28241e-05
-3.67684e-08
1.28299e-05
-3.52841e-08
1.28352e-05
-3.37605e-08
1.28402e-05
-3.22292e-08
1.28447e-05
-3.07127e-08
1.28489e-05
-2.92252e-08
-2.77824e-08
1.28528e-05
1.10935e-05
-1.0138e-08
1.10998e-05
-2.66284e-08
1.11076e-05
-3.73494e-08
1.11157e-05
-4.32724e-08
1.1124e-05
-4.67089e-08
1.11321e-05
-4.85069e-08
1.11399e-05
-4.89618e-08
1.11473e-05
-4.84636e-08
1.11543e-05
-4.73736e-08
1.11608e-05
-4.59156e-08
1.11668e-05
-4.42186e-08
1.11724e-05
-4.23729e-08
1.11776e-05
-4.04523e-08
1.11823e-05
-3.85194e-08
1.11867e-05
-3.65995e-08
1.11907e-05
-3.47254e-08
1.11944e-05
-3.28959e-08
-3.11443e-08
1.11977e-05
9.65848e-06
-1.34028e-08
9.66584e-06
-3.39995e-08
9.67401e-06
-4.55183e-08
9.6821e-06
-5.13798e-08
9.69013e-06
-5.47487e-08
9.6979e-06
-5.62911e-08
9.70523e-06
-5.62968e-08
9.71205e-06
-5.52971e-08
9.71839e-06
-5.37187e-08
9.72425e-06
-5.17886e-08
9.72965e-06
-4.963e-08
9.73462e-06
-4.73488e-08
9.73918e-06
-4.5024e-08
9.74336e-06
-4.27114e-08
9.7472e-06
-4.04415e-08
9.7507e-06
-3.82305e-08
9.75389e-06
-3.60938e-08
-3.407e-08
9.75682e-06
8.40956e-06
-1.76081e-08
8.41818e-06
-4.26328e-08
8.42661e-06
-5.39557e-08
8.43459e-06
-5.93587e-08
8.44238e-06
-6.25479e-08
8.44977e-06
-6.36955e-08
8.45662e-06
-6.3153e-08
8.46293e-06
-6.16171e-08
8.46874e-06
-5.95394e-08
8.47407e-06
-5.71259e-08
8.47894e-06
-5.45057e-08
8.48339e-06
-5.18046e-08
8.48745e-06
-4.90985e-08
8.49116e-06
-4.64233e-08
8.49453e-06
-4.38186e-08
8.49759e-06
-4.13027e-08
8.50037e-06
-3.88762e-08
-3.65701e-08
8.50286e-06
7.32284e-06
-2.31683e-08
7.33278e-06
-5.25751e-08
7.34144e-06
-6.26191e-08
7.34935e-06
-6.72844e-08
7.35704e-06
-7.02421e-08
7.36426e-06
-7.0921e-08
7.37091e-06
-6.98155e-08
7.37702e-06
-6.77334e-08
7.3826e-06
-6.51211e-08
7.38765e-06
-6.21889e-08
7.39221e-06
-5.90722e-08
7.39632e-06
-5.59253e-08
7.40002e-06
-5.27986e-08
7.40335e-06
-4.97636e-08
7.40639e-06
-4.6857e-08
7.40916e-06
-4.40837e-08
7.41173e-06
-4.14587e-08
-3.8936e-08
7.41409e-06
6.37829e-06
-3.13983e-08
6.38939e-06
-6.36739e-08
6.39884e-06
-7.208e-08
6.40772e-06
-7.61732e-08
6.41628e-06
-7.88127e-08
6.42432e-06
-7.89668e-08
6.43173e-06
-7.72317e-08
6.43846e-06
-7.44697e-08
6.44452e-06
-7.11906e-08
6.44997e-06
-6.76424e-08
6.45485e-06
-6.39673e-08
6.45923e-06
-6.02994e-08
6.46317e-06
-5.67444e-08
6.46679e-06
-5.33859e-08
6.47016e-06
-5.02331e-08
6.47333e-06
-4.72652e-08
6.47634e-06
-4.44731e-08
-4.18324e-08
6.47921e-06
5.56151e-06
-4.74427e-08
5.57652e-06
-7.86996e-08
5.59037e-06
-8.59357e-08
5.60434e-06
-9.01578e-08
5.61748e-06
-9.19613e-08
5.6294e-06
-9.08868e-08
5.64e-06
-8.78417e-08
5.64932e-06
-8.37958e-08
5.65751e-06
-7.93856e-08
5.66475e-06
-7.48939e-08
5.67119e-06
-7.04128e-08
5.67694e-06
-6.60568e-08
5.68201e-06
-6.18161e-08
5.6864e-06
-5.77831e-08
5.69012e-06
-5.39557e-08
5.69317e-06
-5.03203e-08
5.69574e-06
-4.70617e-08
-4.45222e-08
5.69842e-06
4.87838e-06
-9.82206e-08
4.91522e-06
-1.15549e-07
4.94236e-06
-1.13085e-07
4.96091e-06
-1.08726e-07
4.97138e-06
-1.02441e-07
4.97464e-06
-9.41452e-08
4.97187e-06
-8.50795e-08
4.96444e-06
-7.63805e-08
4.95371e-06
-6.86587e-08
4.94074e-06
-6.19359e-08
4.92621e-06
-5.59017e-08
4.91045e-06
-5.02989e-08
4.89381e-06
-4.51765e-08
4.87651e-06
-4.04821e-08
4.85891e-06
-3.63617e-08
4.84154e-06
-3.29626e-08
4.82448e-06
-3.00119e-08
-2.82047e-08
4.80814e-06
4.10446e-06
3.98891e-06
3.87582e-06
3.76709e-06
3.66465e-06
3.5705e-06
3.48542e-06
3.40904e-06
3.34038e-06
3.27844e-06
3.22254e-06
3.17224e-06
3.12707e-06
3.08658e-06
3.05022e-06
3.01725e-06
2.98724e-06
2.95903e-06
-7.60162e-09
7.59106e-09
-2.05722e-08
1.29448e-08
-3.48502e-08
1.42606e-08
-4.71826e-08
1.23054e-08
-5.27588e-08
5.56256e-09
-4.5942e-08
-6.84407e-09
-2.46777e-08
-2.12677e-08
8.82119e-09
-3.35228e-08
5.07784e-08
-4.19545e-08
9.67428e-08
-4.59824e-08
1.42638e-07
-4.58905e-08
1.85558e-07
-4.29357e-08
2.23684e-07
-3.81207e-08
2.5587e-07
-3.22014e-08
2.81559e-07
-2.56837e-08
3.00405e-07
-1.88655e-08
3.12299e-07
-1.18853e-08
3.17013e-07
-4.74043e-09
3.14443e-07
2.5805e-09
3.04532e-07
9.87963e-09
2.87724e-07
1.68244e-08
2.6459e-07
2.31059e-08
2.36162e-07
2.84521e-08
2.03597e-07
3.25464e-08
1.68571e-07
3.506e-08
1.32874e-07
3.56919e-08
9.8648e-08
3.42736e-08
6.77983e-08
3.08552e-08
4.20466e-08
2.58093e-08
2.2268e-08
1.97887e-08
8.81722e-09
1.3522e-08
1.3879e-09
7.43925e-09
-4.55834e-11
1.51156e-09
4.24899e-09
-4.28282e-09
1.47906e-08
-1.04497e-08
3.19712e-08
-1.71472e-08
5.57525e-08
-2.3685e-08
8.35337e-08
-2.7723e-08
1.10895e-07
-2.72731e-08
1.33203e-07
-2.22432e-08
1.47333e-07
-1.40599e-08
1.52824e-07
-5.43592e-09
1.51671e-07
1.20344e-09
1.46976e-07
4.73282e-09
1.43139e-07
3.87805e-09
1.43313e-07
-1.5632e-10
1.40181e-07
3.18083e-09
1.23655e-07
1.65114e-08
8.6415e-08
3.73101e-08
2.18256e-08
6.45886e-08
-6.932e-08
9.12279e-08
-1.81224e-07
1.1193e-07
-3.10003e-07
1.28843e-07
-4.52613e-07
1.42649e-07
-6.02437e-07
1.49881e-07
-7.54003e-07
1.51608e-07
-9.03841e-07
1.49885e-07
-1.04904e-06
1.45238e-07
-1.18763e-06
1.38633e-07
-1.31677e-06
1.29169e-07
-1.43547e-06
1.18736e-07
-1.54479e-06
1.09351e-07
-1.64443e-06
9.96699e-08
-1.73507e-06
9.06586e-08
-1.81799e-06
8.29378e-08
-1.8938e-06
7.58314e-08
-1.96338e-06
6.95928e-08
-2.02746e-06
6.40905e-08
-2.08674e-06
5.9281e-08
-2.1418e-06
5.50642e-08
-2.19315e-06
5.13637e-08
-2.24125e-06
4.80915e-08
-2.28643e-06
4.51831e-08
-2.32901e-06
4.25697e-08
-2.36921e-06
4.02085e-08
-2.40728e-06
3.8049e-08
-2.44334e-06
3.60661e-08
-2.47759e-06
3.42236e-08
-2.51008e-06
3.25113e-08
-2.54099e-06
3.08954e-08
-2.57033e-06
2.93762e-08
-2.59825e-06
2.79259e-08
-2.62474e-06
2.65508e-08
-2.64993e-06
2.5221e-08
-2.6738e-06
2.39477e-08
-2.69644e-06
2.27039e-08
-2.7178e-06
2.15e-08
-2.73794e-06
2.03066e-08
-2.75684e-06
1.91231e-08
-2.77449e-06
1.79357e-08
-2.79094e-06
1.67204e-08
-2.80614e-06
1.54737e-08
-2.82006e-06
1.41771e-08
-2.83263e-06
1.28298e-08
-2.84378e-06
1.14098e-08
-2.85342e-06
9.91019e-09
-2.86147e-06
8.30248e-09
-2.86778e-06
6.57948e-09
-2.87226e-06
4.71956e-09
-2.87479e-06
2.76245e-09
-2.87536e-06
7.64743e-10
-2.87414e-06
-1.07017e-09
-2.87132e-06
-2.72322e-09
-2.86693e-06
-4.35542e-09
-2.86093e-06
-5.99911e-09
-2.85329e-06
-7.67069e-09
-2.84397e-06
-9.35486e-09
-2.83295e-06
-1.10596e-08
-2.8202e-06
-1.2765e-08
-2.80571e-06
-1.44812e-08
-2.78948e-06
-1.6188e-08
-2.77153e-06
-1.78948e-08
-2.75185e-06
-1.95821e-08
-2.73049e-06
-2.12567e-08
-2.70745e-06
-2.29012e-08
-2.68278e-06
-2.45211e-08
-2.65651e-06
-2.61032e-08
-2.62869e-06
-2.76509e-08
-2.59936e-06
-2.91494e-08
-2.56858e-06
-3.05974e-08
-2.53639e-06
-3.19835e-08
-2.50287e-06
-3.33078e-08
-2.46806e-06
-3.4574e-08
-2.43203e-06
-3.57789e-08
-2.39485e-06
-3.69325e-08
-2.3566e-06
-3.80228e-08
-2.31734e-06
-3.90588e-08
-2.27712e-06
-4.00316e-08
-2.236e-06
-4.09803e-08
-2.19403e-06
-4.18453e-08
-2.15132e-06
-4.26479e-08
-2.10789e-06
-4.33733e-08
-2.06388e-06
-4.40167e-08
-2.01933e-06
-4.45674e-08
-1.9742e-06
-4.52147e-08
-1.92841e-06
-4.59048e-08
-1.88211e-06
-4.64742e-08
-1.83533e-06
-4.69878e-08
-1.78812e-06
-4.7457e-08
-1.74051e-06
-4.78798e-08
-1.69251e-06
-4.82569e-08
-1.64416e-06
-4.85934e-08
-1.5955e-06
-4.88854e-08
-1.54655e-06
-4.91412e-08
-1.49736e-06
-4.93562e-08
-1.44797e-06
-4.95355e-08
-1.39841e-06
-4.96749e-08
-1.34874e-06
-4.97784e-08
-1.29898e-06
-4.98423e-08
-1.24917e-06
-4.98725e-08
-1.19936e-06
-4.98675e-08
-1.14957e-06
-4.98328e-08
-1.09984e-06
-4.97686e-08
-1.05018e-06
-4.96818e-08
-1.00063e-06
-4.95719e-08
-9.51202e-07
-4.94451e-08
-9.01908e-07
-4.93022e-08
-8.52763e-07
-4.91483e-08
-8.03775e-07
-4.89851e-08
-7.5495e-07
-4.88155e-08
-7.06295e-07
-4.86402e-08
-6.57811e-07
-4.84609e-08
-6.09505e-07
-4.8279e-08
-5.61371e-07
-4.80971e-08
-5.13412e-07
-4.79194e-08
-4.6561e-07
-4.77513e-08
-4.1796e-07
-4.75974e-08
-3.70434e-07
-4.74618e-08
-3.23018e-07
-4.73501e-08
-2.75683e-07
-4.72564e-08
-2.28432e-07
-4.71715e-08
-1.81234e-07
-4.71029e-08
-1.34128e-07
-4.70128e-08
-8.72169e-08
-4.68001e-08
-4.07495e-08
-4.63576e-08
4.73082e-09
-4.53521e-08
4.85183e-08
-4.36684e-08
8.89868e-08
-4.03516e-08
1.26336e-07
-3.72692e-08
-1.38738e-08
1.40241e-07
-3.30361e-09
1.08767e-08
-9.12142e-09
1.87152e-08
-1.19258e-08
1.7032e-08
-5.37239e-09
5.69524e-09
1.52865e-08
-1.51185e-08
4.94788e-08
-4.10663e-08
9.34132e-08
-6.52059e-08
1.42007e-07
-8.21316e-08
1.90424e-07
-9.03717e-08
2.35435e-07
-9.10041e-08
2.75601e-07
-8.60563e-08
3.10251e-07
-7.75961e-08
3.39334e-07
-6.72039e-08
3.63045e-07
-5.5923e-08
3.81744e-07
-4.43822e-08
3.95786e-07
-3.29205e-08
4.05605e-07
-2.17006e-08
4.11641e-07
-1.0792e-08
4.14403e-07
-1.76971e-10
4.14026e-07
1.02407e-08
4.10321e-07
2.05374e-08
4.02802e-07
3.0615e-08
3.9103e-07
4.02361e-08
3.74575e-07
4.89996e-08
3.53294e-07
5.63606e-08
3.27327e-07
6.16668e-08
2.97373e-07
6.42544e-08
2.64633e-07
6.36083e-08
2.30946e-07
5.95299e-08
1.98542e-07
5.22083e-08
1.69963e-07
4.21441e-08
1.4747e-07
2.99474e-08
1.32887e-07
1.61505e-08
1.27494e-07
1.13275e-09
1.3164e-07
-1.45267e-08
1.44132e-07
-2.96021e-08
1.61175e-07
-4.06574e-08
1.77086e-07
-4.35835e-08
1.87206e-07
-3.73283e-08
1.89389e-07
-2.43716e-08
1.83328e-07
-7.9413e-09
1.70319e-07
7.62563e-09
1.51781e-07
1.98006e-08
1.22152e-07
3.44009e-08
7.06967e-08
5.54008e-08
-1.3573e-08
8.41464e-08
-1.32155e-07
1.21808e-07
-2.75807e-07
1.60176e-07
-4.33656e-07
1.95181e-07
-5.96553e-07
2.27499e-07
-7.60338e-07
2.55034e-07
-9.23261e-07
2.74871e-07
-1.08134e-06
2.86949e-07
-1.22984e-06
2.91164e-07
-1.36709e-06
2.87166e-07
-1.49176e-06
2.76297e-07
-1.60298e-06
2.61133e-07
-1.70105e-06
2.43335e-07
-1.78687e-06
2.24478e-07
-1.86279e-06
2.0511e-07
-1.93036e-06
1.86328e-07
-1.99024e-06
1.6925e-07
-2.04427e-06
1.5372e-07
-2.09349e-06
1.39892e-07
-2.13847e-06
1.27934e-07
-2.18014e-06
1.17511e-07
-2.219e-06
1.08462e-07
-2.25548e-06
1.00579e-07
-2.28988e-06
9.36882e-08
-2.32244e-06
8.76246e-08
-2.35332e-06
8.22462e-08
-2.38266e-06
7.74304e-08
-2.41055e-06
7.30769e-08
-2.43709e-06
6.91025e-08
-2.46232e-06
6.54416e-08
-2.48632e-06
6.20392e-08
-2.50911e-06
5.88569e-08
-2.53075e-06
5.58578e-08
-2.55125e-06
5.30179e-08
-2.57066e-06
5.03102e-08
-2.58899e-06
4.77215e-08
-2.60628e-06
4.52298e-08
-2.62252e-06
4.28263e-08
-2.63775e-06
4.04904e-08
-2.65197e-06
3.82169e-08
-2.66519e-06
3.59864e-08
-2.67739e-06
3.37915e-08
-2.68857e-06
3.16095e-08
-2.6987e-06
2.94303e-08
-2.70779e-06
2.72288e-08
-2.71586e-06
2.49888e-08
-2.72288e-06
2.26939e-08
-2.72884e-06
2.03281e-08
-2.73371e-06
1.78871e-08
-2.73746e-06
1.53579e-08
-2.74011e-06
1.27443e-08
-2.74166e-06
1.00426e-08
-2.74216e-06
7.26567e-09
-2.74169e-06
4.41696e-09
-2.74029e-06
1.52099e-09
-2.73798e-06
-1.41793e-09
-2.73454e-06
-4.42249e-09
-2.7297e-06
-7.5188e-09
-2.72336e-06
-1.06879e-08
-2.71546e-06
-1.39216e-08
-2.70595e-06
-1.72108e-08
-2.69481e-06
-2.05412e-08
-2.68199e-06
-2.39036e-08
-2.66748e-06
-2.72825e-08
-2.65129e-06
-3.06709e-08
-2.6334e-06
-3.40524e-08
-2.61382e-06
-3.74203e-08
-2.59258e-06
-4.07573e-08
-2.56969e-06
-4.40563e-08
-2.5452e-06
-4.73002e-08
-2.51912e-06
-5.04838e-08
-2.49152e-06
-5.35922e-08
-2.46243e-06
-5.66207e-08
-2.4319e-06
-5.95522e-08
-2.39998e-06
-6.23773e-08
-2.36673e-06
-6.50821e-08
-2.33221e-06
-6.76648e-08
-2.29649e-06
-7.01266e-08
-2.25962e-06
-7.24706e-08
-2.22167e-06
-7.47026e-08
-2.18271e-06
-7.68197e-08
-2.14279e-06
-7.88284e-08
-2.10197e-06
-8.07281e-08
-2.06032e-06
-8.2532e-08
-2.01786e-06
-8.42207e-08
-1.97466e-06
-8.58005e-08
-1.93073e-06
-8.72641e-08
-1.88612e-06
-8.86275e-08
-1.84081e-06
-8.99005e-08
-1.79491e-06
-9.11557e-08
-1.74854e-06
-9.23559e-08
-1.70168e-06
-9.34464e-08
-1.65436e-06
-9.44429e-08
-1.60663e-06
-9.53562e-08
-1.55849e-06
-9.61845e-08
-1.50999e-06
-9.69311e-08
-1.46114e-06
-9.75966e-08
-1.41198e-06
-9.81835e-08
-1.36255e-06
-9.86954e-08
-1.31288e-06
-9.91342e-08
-1.263e-06
-9.94988e-08
-1.21296e-06
-9.97888e-08
-1.1628e-06
-1.00003e-07
-1.11255e-06
-1.00143e-07
-1.06225e-06
-1.00211e-07
-1.01194e-06
-1.00212e-07
-9.61647e-07
-1.0015e-07
-9.11404e-07
-1.00032e-07
-8.61238e-07
-9.98627e-08
-8.11171e-07
-9.96498e-08
-7.61224e-07
-9.93987e-08
-7.11413e-07
-9.91167e-08
-6.6175e-07
-9.88092e-08
-6.12246e-07
-9.84849e-08
-5.62906e-07
-9.81464e-08
-5.13735e-07
-9.77987e-08
-4.64736e-07
-9.74423e-08
-4.1591e-07
-9.70845e-08
-3.67253e-07
-9.67274e-08
-3.18761e-07
-9.63822e-08
-2.7042e-07
-9.60569e-08
-2.22217e-07
-9.57635e-08
-1.74128e-07
-9.55063e-08
-1.26134e-07
-9.52983e-08
-7.82077e-08
-9.5128e-08
-3.03469e-08
-9.49766e-08
1.74047e-08
-9.47884e-08
6.49782e-08
-9.45203e-08
1.12362e-07
-9.41063e-08
1.59467e-07
-9.33854e-08
2.06191e-07
-9.19872e-08
2.52058e-07
-8.9451e-08
2.96662e-07
-8.48683e-08
3.36744e-07
-7.72806e-08
-5.23377e-08
3.75262e-07
5.7044e-10
1.02901e-08
4.07746e-09
1.5165e-08
1.73789e-08
3.70251e-09
4.75692e-08
-2.45241e-08
9.3938e-08
-6.1497e-08
1.48047e-07
-9.519e-08
2.00671e-07
-1.17833e-07
2.4638e-07
-1.27851e-07
2.83505e-07
-1.27499e-07
3.12616e-07
-1.20125e-07
3.35196e-07
-1.08638e-07
3.52664e-07
-9.50741e-08
3.66142e-07
-8.06827e-08
3.76373e-07
-6.6164e-08
3.83878e-07
-5.18874e-08
3.88981e-07
-3.80322e-08
3.91958e-07
-2.4676e-08
3.93011e-07
-1.18554e-08
3.92418e-07
4.20029e-10
3.90473e-07
1.21772e-08
3.87528e-07
2.34889e-08
3.83747e-07
3.43912e-08
3.79138e-07
4.48559e-08
3.73409e-07
5.47311e-08
3.66078e-07
6.37063e-08
3.56465e-07
7.12901e-08
3.43931e-07
7.68081e-08
3.28083e-07
7.947e-08
3.09127e-07
7.85096e-08
2.87967e-07
7.33838e-08
2.66276e-07
6.386e-08
2.46111e-07
5.01286e-08
2.29492e-07
3.27996e-08
2.17614e-07
1.30331e-08
2.10221e-07
-7.09591e-09
2.03903e-07
-2.32533e-08
1.932e-07
-2.99129e-08
1.74597e-07
-2.49463e-08
1.47607e-07
-1.0293e-08
1.12444e-07
1.08285e-08
6.67498e-08
3.78055e-08
4.39559e-09
7.00228e-08
-8.18993e-08
1.0614e-07
-1.9478e-07
1.47307e-07
-3.31452e-07
1.92095e-07
-4.84966e-07
2.37673e-07
-6.44117e-07
2.80973e-07
-8.02691e-07
3.18759e-07
-9.56275e-07
3.48777e-07
-1.09915e-06
3.70385e-07
-1.2276e-06
3.83499e-07
-1.34063e-06
3.87908e-07
-1.43788e-06
3.84216e-07
-1.52006e-06
3.73368e-07
-1.58957e-06
3.5669e-07
-1.64924e-06
3.35992e-07
-1.70131e-06
3.13221e-07
-1.74775e-06
2.89791e-07
-1.79005e-06
2.66802e-07
-1.82978e-06
2.44854e-07
-1.86787e-06
2.24432e-07
-1.90452e-06
2.05912e-07
-1.94012e-06
1.89335e-07
-1.97483e-06
1.74609e-07
-2.00852e-06
1.61639e-07
-2.04123e-06
1.50222e-07
-2.07291e-06
1.40151e-07
-2.10356e-06
1.31227e-07
-2.13314e-06
1.23273e-07
-2.16164e-06
1.16132e-07
-2.18906e-06
1.09666e-07
-2.21539e-06
1.0376e-07
-2.24063e-06
9.83188e-08
-2.26479e-06
9.32629e-08
-2.28788e-06
8.85305e-08
-2.30992e-06
8.40716e-08
-2.33091e-06
7.98469e-08
-2.35087e-06
7.58241e-08
-2.36982e-06
7.1978e-08
-2.38779e-06
6.82855e-08
-2.40479e-06
6.47294e-08
-2.42083e-06
6.12913e-08
-2.43594e-06
5.79562e-08
-2.45013e-06
5.47068e-08
-2.46341e-06
5.15296e-08
-2.47578e-06
4.84057e-08
-2.48724e-06
4.53195e-08
-2.4978e-06
4.22492e-08
-2.50742e-06
3.91755e-08
-2.51612e-06
3.60726e-08
-2.52391e-06
3.29188e-08
-2.53077e-06
2.96889e-08
-2.53668e-06
2.63762e-08
-2.54163e-06
2.29585e-08
-2.54558e-06
1.94379e-08
-2.54851e-06
1.57997e-08
-2.55039e-06
1.20529e-08
-2.5512e-06
8.18802e-09
-2.55089e-06
4.21292e-09
-2.54939e-06
1.16584e-10
-2.54663e-06
-4.11053e-09
-2.54253e-06
-8.49122e-09
-2.53702e-06
-1.30271e-08
-2.53004e-06
-1.76923e-08
-2.52153e-06
-2.247e-08
-2.51144e-06
-2.73332e-08
-2.49976e-06
-3.22679e-08
-2.48643e-06
-3.72482e-08
-2.47147e-06
-4.22611e-08
-2.45485e-06
-4.72823e-08
-2.43659e-06
-5.22979e-08
-2.41669e-06
-5.72845e-08
-2.39517e-06
-6.22265e-08
-2.37206e-06
-6.71017e-08
-2.34739e-06
-7.18944e-08
-2.32121e-06
-7.65863e-08
-2.29356e-06
-8.11641e-08
-2.26448e-06
-8.56112e-08
-2.23404e-06
-8.99113e-08
-2.20227e-06
-9.40473e-08
-2.16923e-06
-9.80062e-08
-2.13498e-06
-1.01785e-07
-2.09959e-06
-1.05382e-07
-2.06313e-06
-1.08807e-07
-2.02564e-06
-1.12058e-07
-1.98721e-06
-1.15144e-07
-1.94786e-06
-1.18065e-07
-1.90768e-06
-1.20831e-07
-1.86669e-06
-1.23443e-07
-1.82495e-06
-1.25907e-07
-1.7825e-06
-1.28218e-07
-1.73937e-06
-1.30378e-07
-1.69559e-06
-1.32399e-07
-1.65121e-06
-1.34304e-07
-1.60628e-06
-1.36118e-07
-1.56088e-06
-1.37826e-07
-1.515e-06
-1.39405e-07
-1.46869e-06
-1.40862e-07
-1.42196e-06
-1.42199e-07
-1.37484e-06
-1.43417e-07
-1.32736e-06
-1.44518e-07
-1.27955e-06
-1.45505e-07
-1.23143e-06
-1.46381e-07
-1.18304e-06
-1.4715e-07
-1.13441e-06
-1.47814e-07
-1.08558e-06
-1.48371e-07
-1.03658e-06
-1.48818e-07
-9.87457e-07
-1.49154e-07
-9.3824e-07
-1.49379e-07
-8.88968e-07
-1.49498e-07
-8.39675e-07
-1.49515e-07
-7.90392e-07
-1.4944e-07
-7.41151e-07
-1.49278e-07
-6.91976e-07
-1.49039e-07
-6.42893e-07
-1.48734e-07
-5.9392e-07
-1.48371e-07
-5.45075e-07
-1.4796e-07
-4.96369e-07
-1.47512e-07
-4.47813e-07
-1.47038e-07
-3.99411e-07
-1.46544e-07
-3.51166e-07
-1.46038e-07
-3.03081e-07
-1.45522e-07
-2.55154e-07
-1.45006e-07
-2.07379e-07
-1.44496e-07
-1.59747e-07
-1.44007e-07
-1.12244e-07
-1.43552e-07
-6.48522e-08
-1.43149e-07
-1.75505e-08
-1.42801e-07
2.96738e-08
-1.42516e-07
7.68425e-08
-1.4229e-07
1.2399e-07
-1.4212e-07
1.71155e-07
-1.41949e-07
2.18344e-07
-1.41708e-07
2.65526e-07
-1.41287e-07
3.12624e-07
-1.40484e-07
3.59541e-07
-1.38902e-07
4.0604e-07
-1.35951e-07
4.51846e-07
-1.30673e-07
4.95991e-07
-1.21436e-07
-9.81775e-08
5.41805e-07
5.51184e-11
1.02198e-08
1.18251e-08
3.36074e-09
4.75497e-08
-3.2039e-08
1.0418e-07
-8.1171e-08
1.66409e-07
-1.23732e-07
2.20719e-07
-1.49512e-07
2.61396e-07
-1.58514e-07
2.8899e-07
-1.55456e-07
3.06796e-07
-1.45309e-07
3.18227e-07
-1.31567e-07
3.25814e-07
-1.16227e-07
3.31051e-07
-1.00321e-07
3.34731e-07
-8.43647e-08
3.37182e-07
-6.8623e-08
3.38537e-07
-5.32434e-08
3.38815e-07
-3.83181e-08
3.38051e-07
-2.39105e-08
3.36259e-07
-1.00702e-08
3.3352e-07
3.16209e-09
3.29924e-07
1.57682e-08
3.25674e-07
2.77445e-08
3.20981e-07
3.90823e-08
3.1608e-07
4.97664e-08
3.11087e-07
5.97277e-08
3.06006e-07
6.88012e-08
3.00621e-07
7.66848e-08
2.94533e-07
8.2915e-08
2.87163e-07
8.68523e-08
2.77995e-07
8.77e-08
2.66681e-07
8.47121e-08
2.53298e-07
7.7266e-08
2.3841e-07
6.50331e-08
2.22724e-07
4.85141e-08
2.06e-07
2.97781e-08
1.84799e-07
1.41427e-08
1.53984e-07
7.58907e-09
1.11483e-07
1.26284e-08
5.70493e-08
2.95199e-08
-1.09975e-08
5.77956e-08
-9.58643e-08
9.57261e-08
-1.99179e-07
1.41148e-07
-3.20255e-07
1.91118e-07
-4.56434e-07
2.42335e-07
-6.01603e-07
2.92488e-07
-7.48751e-07
3.39253e-07
-8.91427e-07
3.80357e-07
-1.02364e-06
4.13192e-07
-1.14129e-06
4.36417e-07
-1.24293e-06
4.50433e-07
-1.32818e-06
4.55643e-07
-1.39768e-06
4.53002e-07
-1.45342e-06
4.43663e-07
-1.49801e-06
4.28818e-07
-1.53441e-06
4.09789e-07
-1.56561e-06
3.879e-07
-1.59402e-06
3.64422e-07
-1.62127e-06
3.40488e-07
-1.6484e-06
3.16937e-07
-1.67595e-06
2.94373e-07
-1.70423e-06
2.73147e-07
-1.73327e-06
2.53479e-07
-1.76285e-06
2.35503e-07
-1.79274e-06
2.19236e-07
-1.82271e-06
2.04587e-07
-1.8525e-06
1.91435e-07
-1.8819e-06
1.79629e-07
-1.91076e-06
1.69005e-07
-1.93893e-06
1.59402e-07
-1.96633e-06
1.50672e-07
-1.99287e-06
1.4268e-07
-2.01852e-06
1.3531e-07
-2.04322e-06
1.28463e-07
-2.06695e-06
1.22055e-07
-2.08971e-06
1.1602e-07
-2.11148e-06
1.10303e-07
-2.13227e-06
1.04861e-07
-2.15208e-06
9.96604e-08
-2.17093e-06
9.46733e-08
-2.18882e-06
8.98774e-08
-2.20578e-06
8.52531e-08
-2.22183e-06
8.07832e-08
-2.23697e-06
7.64505e-08
-2.25124e-06
7.22384e-08
-2.26464e-06
6.81288e-08
-2.27718e-06
6.41036e-08
-2.28888e-06
6.01427e-08
-2.29974e-06
5.62225e-08
-2.30974e-06
5.23208e-08
-2.31888e-06
4.84094e-08
-2.32716e-06
4.4456e-08
-2.33458e-06
4.04394e-08
-2.34112e-06
3.63281e-08
-2.34675e-06
3.2106e-08
-2.35145e-06
2.77517e-08
-2.35518e-06
2.32566e-08
-2.35789e-06
1.86046e-08
-2.35955e-06
1.3794e-08
-2.36009e-06
8.8105e-09
-2.35947e-06
3.65316e-09
-2.35761e-06
-1.69389e-09
-2.35446e-06
-7.23835e-09
-2.34997e-06
-1.29903e-08
-2.34408e-06
-1.89406e-08
-2.33675e-06
-2.50656e-08
-2.32792e-06
-3.13412e-08
-2.31757e-06
-3.77356e-08
-2.30564e-06
-4.42266e-08
-2.29213e-06
-5.07818e-08
-2.27702e-06
-5.73808e-08
-2.26031e-06
-6.39913e-08
-2.242e-06
-7.05924e-08
-2.2221e-06
-7.7152e-08
-2.20064e-06
-8.36486e-08
-2.17764e-06
-9.00512e-08
-2.15314e-06
-9.63401e-08
-2.12717e-06
-1.02488e-07
-2.0998e-06
-1.08479e-07
-2.07105e-06
-1.14289e-07