/*--------------------------------*- C++ -*----------------------------------*\
  =========                 |
  \\      /  F ield         | OpenFOAM: The Open Source CFD Toolbox
   \\    /   O peration     | Website:  https://openfoam.org
    \\  /    A nd           | Version:  13
     \\/     M anipulation  |
\*---------------------------------------------------------------------------*/
FoamFile
{
    format      ascii;
    class       volVectorField;
    location    "300";
    object      U;
}
// * * * * * * * * * * * * * * * * * * * * * * * * * * * * * * * * * * * * * //

dimensions      [0 1 -1 0 0 0 0];

internalField   nonuniform List<vector> 
12225
(
(9.75152 0.0513783 0)
(9.27797 0.110598 0)
(8.78858 0.126821 0)
(8.33315 0.10585 0)
(7.93544 0.0860768 0)
(7.59474 0.0625585 0)
(7.3073 0.0545724 0)
(7.07007 0.0570803 0)
(6.87868 0.0505241 0)
(6.73214 0.0486411 0)
(6.61901 0.0354535 0)
(6.53128 0.0114538 0)
(6.46267 0.00142959 0)
(6.40788 0.002338 0)
(6.36889 0.001494 0)
(6.351 -0.00310277 0)
(6.3465 -0.0220078 0)
(6.36238 -0.0246768 0)
(10.1053 0.057081 0)
(10.312 0.0902674 0)
(10.4252 0.0950533 0)
(10.4674 0.097146 0)
(10.4711 0.0961052 0)
(10.4388 0.0940837 0)
(10.3937 0.0874987 0)
(10.3066 0.0769226 0)
(10.2096 0.0680541 0)
(10.0952 0.0590217 0)
(9.97546 0.0531799 0)
(9.86545 0.0508202 0)
(9.77015 0.0461193 0)
(9.67875 0.0388764 0)
(9.59345 0.0311787 0)
(9.50831 0.0248409 0)
(9.43087 0.0203826 0)
(9.3637 0.010432 0)
(10.0083 0.0470032 0)
(10.0535 0.0693581 0)
(10.1158 0.0787708 0)
(10.1643 0.0796209 0)
(10.2104 0.0821994 0)
(10.2552 0.0823983 0)
(10.296 0.0821528 0)
(10.3309 0.0822398 0)
(10.3579 0.0798832 0)
(10.3763 0.0772408 0)
(10.3865 0.0725855 0)
(10.3884 0.0659781 0)
(10.384 0.0607144 0)
(10.3758 0.0566421 0)
(10.3647 0.0520718 0)
(10.3494 0.0462473 0)
(10.3305 0.0382371 0)
(10.3058 0.0302927 0)
(10.0047 0.0316353 0)
(10.0338 0.0496746 0)
(10.0602 0.0651333 0)
(10.0805 0.0699658 0)
(10.0957 0.0711042 0)
(10.1116 0.0699024 0)
(10.1275 0.0682745 0)
(10.1439 0.0666754 0)
(10.1606 0.0640188 0)
(10.1772 0.0614897 0)
(10.1934 0.0578101 0)
(10.2076 0.0531217 0)
(10.2196 0.0492035 0)
(10.2305 0.0460467 0)
(10.2407 0.0428474 0)
(10.2499 0.0390005 0)
(10.2568 0.0337573 0)
(10.2614 0.0285772 0)
(10.0145 0.02861 0)
(10.0298 0.0511378 0)
(10.0459 0.065034 0)
(10.066 0.0704971 0)
(10.0813 0.0709878 0)
(10.0941 0.0698298 0)
(10.1055 0.0682758 0)
(10.1161 0.0666429 0)
(10.1261 0.0642234 0)
(10.1357 0.06161 0)
(10.1449 0.0581272 0)
(10.1532 0.0538755 0)
(10.1603 0.0499686 0)
(10.167 0.0464632 0)
(10.1736 0.0428082 0)
(10.1799 0.0386059 0)
(10.1853 0.0337119 0)
(10.1899 0.0292032 0)
(10.0041 0.0208717 0)
(10.0246 0.0511039 0)
(10.0428 0.0633851 0)
(10.0622 0.065962 0)
(10.0766 0.0668556 0)
(10.0887 0.0666047 0)
(10.0996 0.0655684 0)
(10.1095 0.0640226 0)
(10.1184 0.0617199 0)
(10.1267 0.0589551 0)
(10.1343 0.0554146 0)
(10.1409 0.0512755 0)
(10.1464 0.0472698 0)
(10.1514 0.0435239 0)
(10.1561 0.0397348 0)
(10.1604 0.035667 0)
(10.164 0.0312954 0)
(10.167 0.0272489 0)
(10.0024 0.0169942 0)
(10.0187 0.0435908 0)
(10.0351 0.0559306 0)
(10.0529 0.0602792 0)
(10.0664 0.0619716 0)
(10.0781 0.0622433 0)
(10.0887 0.0614514 0)
(10.0984 0.0599613 0)
(10.107 0.0577541 0)
(10.115 0.055091 0)
(10.1222 0.0518276 0)
(10.1286 0.0481337 0)
(10.134 0.0444717 0)
(10.1389 0.0409493 0)
(10.1433 0.0373857 0)
(10.1472 0.0336314 0)
(10.1504 0.0297328 0)
(10.1532 0.026094 0)
(10.0023 0.0135477 0)
(10.0135 0.0370832 0)
(10.0289 0.0477769 0)
(10.0444 0.0526753 0)
(10.0572 0.0553663 0)
(10.0684 0.0563996 0)
(10.0788 0.05617 0)
(10.0883 0.0550619 0)
(10.097 0.0532995 0)
(10.1048 0.0509271 0)
(10.1118 0.0480122 0)
(10.1181 0.0447413 0)
(10.1235 0.0413969 0)
(10.1284 0.038083 0)
(10.1328 0.034732 0)
(10.1366 0.0312748 0)
(10.1399 0.0277737 0)
(10.1427 0.0244762 0)
(10.0018 0.0111708 0)
(10.0098 0.0336672 0)
(10.0249 0.0435983 0)
(10.0385 0.0484905 0)
(10.0503 0.0511892 0)
(10.0611 0.0523196 0)
(10.0711 0.0522017 0)
(10.0803 0.0512034 0)
(10.0889 0.0495855 0)
(10.0965 0.0473567 0)
(10.1035 0.0446944 0)
(10.1097 0.0417051 0)
(10.1151 0.0385898 0)
(10.12 0.035458 0)
(10.1243 0.0322978 0)
(10.1281 0.0290916 0)
(10.1314 0.0258961 0)
(10.1343 0.0228703 0)
(10.0012 0.00958847 0)
(10.0079 0.029118 0)
(10.0211 0.0388311 0)
(10.0334 0.0439736 0)
(10.0445 0.0467313 0)
(10.0548 0.0479586 0)
(10.0644 0.0479894 0)
(10.0734 0.0471309 0)
(10.0817 0.045629 0)
(10.0892 0.0436213 0)
(10.0961 0.0412006 0)
(10.1023 0.0384854 0)
(10.1077 0.0356135 0)
(10.1125 0.0326823 0)
(10.1168 0.0297146 0)
(10.1206 0.0267447 0)
(10.1239 0.0238188 0)
(10.1268 0.0210467 0)
(10.0007 0.00824126 0)
(10.0065 0.0250391 0)
(10.0175 0.034211 0)
(10.0287 0.0392937 0)
(10.0392 0.0420617 0)
(10.0489 0.043384 0)
(10.0582 0.0435454 0)
(10.0669 0.0428374 0)
(10.0749 0.0414944 0)
(10.0823 0.039671 0)
(10.089 0.0374756 0)
(10.0951 0.0350083 0)
(10.1005 0.0323815 0)
(10.1054 0.0296783 0)
(10.1096 0.0269412 0)
(10.1134 0.0242152 0)
(10.1167 0.0215466 0)
(10.1197 0.019011 0)
(10.0005 0.00703825 0)
(10.0055 0.0214359 0)
(10.0147 0.0299101 0)
(10.0248 0.0348239 0)
(10.0346 0.0375991 0)
(10.0439 0.0389878 0)
(10.0528 0.0392544 0)
(10.0612 0.0386829 0)
(10.0689 0.0374935 0)
(10.0761 0.0358445 0)
(10.0827 0.0338501 0)
(10.0886 0.0316029 0)
(10.094 0.0292073 0)
(10.0988 0.0267294 0)
(10.1031 0.0242239 0)
(10.1069 0.0217296 0)
(10.1102 0.0192932 0)
(10.1133 0.0169739 0)
(10.0004 0.00598622 0)
(10.0047 0.0184779 0)
(10.0125 0.0260788 0)
(10.0216 0.0306654 0)
(10.0307 0.0333027 0)
(10.0394 0.0346471 0)
(10.0478 0.0349626 0)
(10.0558 0.0344875 0)
(10.0633 0.0334294 0)
(10.0703 0.031939 0)
(10.0766 0.0301251 0)
(10.0824 0.0280842 0)
(10.0877 0.0258984 0)
(10.0925 0.0236349 0)
(10.0967 0.0213417 0)
(10.1005 0.0190642 0)
(10.1039 0.0168365 0)
(10.107 0.0147248 0)
(10.0004 0.00493155 0)
(10.004 0.0153948 0)
(10.0105 0.0218715 0)
(10.0185 0.025966 0)
(10.0268 0.0283811 0)
(10.0349 0.0296335 0)
(10.0427 0.0299602 0)
(10.0503 0.0295711 0)
(10.0574 0.0286442 0)
(10.064 0.0273216 0)
(10.0701 0.0257063 0)
(10.0758 0.0238873 0)
(10.0809 0.0219337 0)
(10.0855 0.0199106 0)
(10.0897 0.0178599 0)
(10.0935 0.0158249 0)
(10.0969 0.0138356 0)
(10.1 0.0119499 0)
(10.0003 0.00387576 0)
(10.0033 0.0122758 0)
(10.0088 0.0174541 0)
(10.0157 0.0208685 0)
(10.0231 0.0229249 0)
(10.0305 0.0239906 0)
(10.0377 0.0242667 0)
(10.0448 0.023924 0)
(10.0514 0.0231118 0)
(10.0577 0.0219494 0)
(10.0635 0.0205365 0)
(10.0689 0.0189433 0)
(10.0739 0.0172399 0)
(10.0784 0.0154711 0)
(10.0825 0.013685 0)
(10.0862 0.0119105 0)
(10.0895 0.0101792 0)
(10.0926 0.00853766 0)
(10.0003 0.00282294 0)
(10.0027 0.00912919 0)
(10.0073 0.0128841 0)
(10.0132 0.015433 0)
(10.0198 0.0169697 0)
(10.0265 0.017732 0)
(10.0331 0.0178692 0)
(10.0396 0.017514 0)
(10.0458 0.0167778 0)
(10.0517 0.0157597 0)
(10.0573 0.0145375 0)
(10.0624 0.0131752 0)
(10.0671 0.0117233 0)
(10.0715 0.0102245 0)
(10.0755 0.00871253 0)
(10.0791 0.00721588 0)
(10.0824 0.00575446 0)
(10.0855 0.00437424 0)
(10.0002 0.00176589 0)
(10.0023 0.00593101 0)
(10.0061 0.0081514 0)
(10.0113 0.00965269 0)
(10.017 0.0104986 0)
(10.0231 0.0108242 0)
(10.0292 0.0107192 0)
(10.0352 0.0102738 0)
(10.041 0.0095632 0)
(10.0466 0.00865617 0)
(10.0518 0.00760811 0)
(10.0567 0.00646735 0)
(10.0612 0.00526778 0)
(10.0655 0.00404326 0)
(10.0693 0.0028156 0)
(10.0729 0.0016071 0)
(10.0761 0.000430319 0)
(10.0792 -0.000677976 0)
(10.0002 0.000670723 0)
(10.002 0.00260435 0)
(10.0053 0.00315905 0)
(10.0099 0.00342588 0)
(10.0152 0.00339981 0)
(10.0207 0.00313733 0)
(10.0264 0.00266888 0)
(10.032 0.00204065 0)
(10.0375 0.0012879 0)
(10.0428 0.000446319 0)
(10.0478 -0.000455326 0)
(10.0525 -0.00139176 0)
(10.0569 -0.00234337 0)
(10.061 -0.00329306 0)
(10.0648 -0.00422753 0)
(10.0683 -0.00513634 0)
(10.0715 -0.00601133 0)
(10.0746 -0.00682902 0)
(10.0002 -0.000546896 0)
(10.0019 -0.00105506 0)
(10.0051 -0.00236863 0)
(10.0095 -0.00353518 0)
(10.0145 -0.00460597 0)
(10.0199 -0.00559918 0)
(10.0253 -0.00654324 0)
(10.0308 -0.00744047 0)
(10.0362 -0.0082971 0)
(10.0413 -0.00911572 0)
(10.0462 -0.00989886 0)
(10.0509 -0.0106461 0)
(10.0552 -0.0113571 0)
(10.0593 -0.0120308 0)
(10.063 -0.0126668 0)
(10.0665 -0.0132652 0)
(10.0698 -0.0138248 0)
(10.0728 -0.0143358 0)
(10.0002 -0.00174939 0)
(10.0021 -0.00462877 0)
(10.0056 -0.00774698 0)
(10.0103 -0.0102725 0)
(10.0157 -0.0123173 0)
(10.0213 -0.0139892 0)
(10.027 -0.0153702 0)
(10.0326 -0.0165116 0)
(10.0381 -0.0174563 0)
(10.0434 -0.01825 0)
(10.0484 -0.0189198 0)
(10.0531 -0.0194927 0)
(10.0575 -0.0199813 0)
(10.0616 -0.0204035 0)
(10.0655 -0.0207665 0)
(10.069 -0.0210821 0)
(10.0723 -0.0213541 0)
(10.0754 -0.0215849 0)
(10.0003 -0.00287568 0)
(10.0025 -0.00787879 0)
(10.0066 -0.0125523 0)
(10.012 -0.0161561 0)
(10.018 -0.0189334 0)
(10.024 -0.0210979 0)
(10.0301 -0.0227791 0)
(10.036 -0.0240617 0)
(10.0418 -0.0250323 0)
(10.0473 -0.0257657 0)
(10.0525 -0.0263165 0)
(10.0574 -0.0267229 0)
(10.0619 -0.0270157 0)
(10.0662 -0.0272186 0)
(10.0701 -0.0273502 0)
(10.0738 -0.0274257 0)
(10.0771 -0.0274544 0)
(10.0803 -0.0274444 0)
(10.0004 -0.0041181 0)
(10.0032 -0.0113234 0)
(10.0083 -0.0174501 0)
(10.0147 -0.0219316 0)
(10.0214 -0.0252667 0)
(10.0281 -0.027794 0)
(10.0346 -0.0296708 0)
(10.041 -0.0310148 0)
(10.0472 -0.031957 0)
(10.053 -0.0325998 0)
(10.0584 -0.0330158 0)
(10.0635 -0.0332514 0)
(10.0682 -0.0333506 0)
(10.0726 -0.0333426 0)
(10.0766 -0.0332558 0)
(10.0804 -0.0331058 0)
(10.0838 -0.0329069 0)
(10.087 -0.0326709 0)
(10.0005 -0.00558653 0)
(10.0043 -0.0151719 0)
(10.0109 -0.0226028 0)
(10.0185 -0.0277188 0)
(10.0261 -0.0314422 0)
(10.0334 -0.0342029 0)
(10.0406 -0.0361521 0)
(10.0475 -0.0374601 0)
(10.054 -0.0383074 0)
(10.0601 -0.0388212 0)
(10.0658 -0.0390762 0)
(10.071 -0.0391303 0)
(10.0759 -0.0390277 0)
(10.0803 -0.0388115 0)
(10.0844 -0.0385065 0)
(10.0882 -0.0381393 0)
(10.0917 -0.0377171 0)
(10.0949 -0.0372672 0)
(10.0007 -0.00740905 0)
(10.006 -0.0196379 0)
(10.0146 -0.0280933 0)
(10.0236 -0.0335684 0)
(10.0321 -0.0375514 0)
(10.0402 -0.0404432 0)
(10.048 -0.0423461 0)
(10.0554 -0.0435012 0)
(10.0622 -0.0441554 0)
(10.0685 -0.0444597 0)
(10.0744 -0.0444904 0)
(10.0797 -0.0443095 0)
(10.0847 -0.0439824 0)
(10.0892 -0.0435611 0)
(10.0933 -0.0430522 0)
(10.0971 -0.0424844 0)
(10.1006 -0.0418622 0)
(10.1038 -0.0412384 0)
(10.001 -0.00969893 0)
(10.0087 -0.0248876 0)
(10.0198 -0.0339038 0)
(10.0303 -0.0394401 0)
(10.0396 -0.0435143 0)
(10.0484 -0.0463765 0)
(10.0569 -0.0481267 0)
(10.0648 -0.0490973 0)
(10.0721 -0.0495588 0)
(10.0787 -0.0496457 0)
(10.0847 -0.0494382 0)
(10.0903 -0.0490247 0)
(10.0953 -0.0484485 0)
(10.0999 -0.0477519 0)
(10.1041 -0.0469887 0)
(10.108 -0.0461689 0)
(10.1114 -0.0453051 0)
(10.1147 -0.0444211 0)
(10.0017 -0.0126812 0)
(10.0126 -0.0306867 0)
(10.0268 -0.0398373 0)
(10.0389 -0.0453258 0)
(10.0493 -0.0493624 0)
(10.0592 -0.0519908 0)
(10.0688 -0.053427 0)
(10.0776 -0.0541076 0)
(10.0856 -0.0543147 0)
(10.0928 -0.0541828 0)
(10.0994 -0.0537928 0)
(10.1053 -0.0532049 0)
(10.1106 -0.0524865 0)
(10.1154 -0.0516923 0)
(10.1197 -0.050852 0)
(10.1237 -0.0499665 0)
(10.1273 -0.0490173 0)
(10.1308 -0.0480525 0)
(10.0032 -0.01748 0)
(10.0199 -0.0366169 0)
(10.0377 -0.0448128 0)
(10.053 -0.0506202 0)
(10.066 -0.0551244 0)
(10.0787 -0.0577586 0)
(10.0911 -0.0589203 0)
(10.1023 -0.0592026 0)
(10.1123 -0.0589582 0)
(10.1213 -0.0583224 0)
(10.1294 -0.0573815 0)
(10.1367 -0.0563215 0)
(10.1431 -0.0551697 0)
(10.1491 -0.0539639 0)
(10.1545 -0.0527305 0)
(10.1597 -0.0514998 0)
(10.1645 -0.050352 0)
(10.1691 -0.049136 0)
(10.0082 -0.0263795 0)
(10.0412 -0.0459625 0)
(10.0689 -0.0514721 0)
(10.0947 -0.0560453 0)
(10.1182 -0.0607942 0)
(10.1407 -0.0640661 0)
(10.1613 -0.0658018 0)
(10.1793 -0.0665641 0)
(10.195 -0.0667 0)
(10.2088 -0.0664073 0)
(10.2211 -0.0657835 0)
(10.2321 -0.0648794 0)
(10.2419 -0.0638272 0)
(10.2504 -0.0627134 0)
(10.2578 -0.0616231 0)
(10.2638 -0.0606284 0)
(10.2689 -0.0596463 0)
(10.2733 -0.058926 0)
(10.0444 -0.0366567 0)
(10.1448 -0.062856 0)
(10.2173 -0.0680736 0)
(10.2622 -0.0699537 0)
(10.2904 -0.0713492 0)
(10.3041 -0.071499 0)
(10.3046 -0.070513 0)
(10.2934 -0.0689505 0)
(10.2741 -0.0672782 0)
(10.2489 -0.0655692 0)
(10.2203 -0.0637539 0)
(10.1888 -0.061881 0)
(10.1551 -0.0599119 0)
(10.1199 -0.0579647 0)
(10.0834 -0.0560146 0)
(10.047 -0.0540092 0)
(10.0115 -0.052301 0)
(9.97664 -0.0515703 0)
(9.87748 -0.0395801 0)
(9.62575 -0.0744803 0)
(9.36363 -0.0853699 0)
(9.09464 -0.0878924 0)
(8.83886 -0.0861173 0)
(8.60423 -0.0813028 0)
(8.39111 -0.0748612 0)
(8.19964 -0.0678487 0)
(8.0273 -0.0610934 0)
(7.87241 -0.0549855 0)
(7.73221 -0.0494 0)
(7.60602 -0.0441185 0)
(7.49265 -0.039181 0)
(7.39068 -0.0345803 0)
(7.2997 -0.0304975 0)
(7.21773 -0.0270732 0)
(7.14248 -0.0239288 0)
(7.07512 -0.021902 0)
(-0.00252934 0.0070398 -8.45072e-19)
(-0.0118519 0.0118208 9.58762e-19)
(-0.0245075 0.0129358 -6.65557e-19)
(-0.0381487 0.0110392 -2.04267e-19)
(-0.0481164 0.00562065 3.1831e-19)
(-0.047281 -0.00327507 -7.93892e-20)
(-0.0324821 -0.015263 -8.00513e-20)
(-0.00682247 -0.0278391 4.09132e-19)
(0.0266406 -0.0374153 -1.93971e-19)
(0.0651707 -0.0423114 4.59052e-20)
(0.106128 -0.043085 1.48048e-20)
(0.146199 -0.0407792 -1.59261e-19)
(0.182848 -0.0363376 2.21792e-19)
(0.214611 -0.0305336 2.26034e-19)
(0.240741 -0.0239187 1.94159e-20)
(0.260878 -0.0168617 8.16812e-20)
(0.274825 -0.00956595 3.20961e-20)
(0.282595 -0.00204639 5.57115e-20)
(0.283967 0.00575605 8.30223e-20)
(0.278354 0.0136086 8.93814e-21)
(0.26633 0.0209895 -3.02994e-20)
(0.248442 0.0272469 2.55776e-19)
(0.225296 0.0317711 -3.39123e-20)
(0.197795 0.0340382 2.92263e-19)
(0.167183 0.033651 -6.60953e-20)
(0.135063 0.0304282 2.80984e-19)
(0.103256 0.02457 1.62381e-19)
(0.0736469 0.0168045 1.24049e-19)
(0.0479009 0.00847785 -5.90901e-19)
(0.0272291 0.00126094 -1.29209e-19)
(0.012285 -0.00368738 -1.05933e-18)
(0.00307018 -0.00660443 7.60174e-19)
(-0.0011868 -0.00863111 6.17563e-19)
(0.000866206 -0.0104543 -7.10335e-19)
(0.0077557 -0.0127438 -8.99794e-19)
(0.0202278 -0.0156826 -4.69638e-20)
(0.0389716 -0.0190702 2.02725e-19)
(0.062554 -0.0215447 3.88662e-19)
(0.0880305 -0.0215936 2.21324e-19)
(0.111212 -0.0182847 4.43755e-19)
(0.128418 -0.012162 1.61953e-19)
(0.137807 -0.00507182 4.14114e-20)
(0.13973 0.000925998 -5.52216e-19)
(0.136251 0.00426528 -1.14831e-19)
(0.131392 0.00360153 2.42564e-19)
(0.129532 -0.00230606 1.26988e-20)
(0.128738 -0.0130269 5.88142e-19)
(0.121734 -0.0242773 1.90562e-19)
(0.101021 -0.0256424 8.21671e-20)
(0.0604382 -0.00929541 -7.85427e-19)
(-0.0126189 0.0158788 5.3799e-19)
(-0.112415 0.0408232 2.89945e-20)
(-0.222323 0.0673025 2.66814e-19)
(-0.345015 0.0920022 1.60717e-19)
(-0.479175 0.102832 5.21381e-20)
(-0.620862 0.106731 1.03136e-19)
(-0.7594 0.110545 1.21079e-19)
(-0.895277 0.112833 -1.18255e-19)
(-1.02519 0.11249 4.36519e-20)
(-1.14868 0.104918 4.70937e-20)
(-1.26334 0.095211 -1.07434e-19)
(-1.36836 0.0881767 -6.77571e-20)
(-1.46497 0.0791572 5.16472e-20)
(-1.55313 0.070582 6.055e-20)
(-1.63373 0.0641986 1.66989e-20)
(-1.70764 0.0580999 -6.3417e-20)
(-1.77557 0.0528453 6.91605e-21)
(-1.83823 0.0481931 3.25343e-21)
(-1.89627 0.0441644 1.61641e-20)
(-1.95028 0.0406494 7.86748e-20)
(-2.00075 0.0376013 -3.90636e-21)
(-2.04811 0.0349336 -5.65715e-20)
(-2.09271 0.0325979 6.08076e-20)
(-2.13486 0.0305324 2.21122e-20)
(-2.1748 0.0287016 -3.57057e-20)
(-2.21274 0.0270625 2.96167e-20)
(-2.24883 0.0255924 -4.54911e-21)
(-2.28323 0.0242613 5.68841e-20)
(-2.31605 0.0230564 2.61504e-20)
(-2.34739 0.0219513 -3.85333e-20)
(-2.37733 0.0209408 -1.09823e-20)
(-2.40596 0.0200027 2.16783e-21)
(-2.43332 0.0191343 4.29608e-20)
(-2.45947 0.0183124 5.31928e-20)
(-2.48447 0.017536 4.66975e-20)
(-2.50834 0.0167821 -4.72589e-20)
(-2.5311 0.016048 1.00244e-19)
(-2.55275 0.0153088 -3.96843e-21)
(-2.5733 0.0145569 7.14409e-20)
(-2.59274 0.0137745 -1.00922e-19)
(-2.61109 0.0129429 -5.39904e-20)
(-2.62835 0.0120534 4.52781e-20)
(-2.64447 0.0110945 6.56968e-20)
(-2.6594 0.0100697 -9.94747e-21)
(-2.67308 0.00898214 -6.15302e-20)
(-2.68543 0.00785414 -6.10311e-20)
(-2.69637 0.00670297 6.25617e-20)
(-2.70579 0.00554694 -3.36968e-20)
(-2.71356 0.00438683 -8.03986e-20)
(-2.71956 0.00324718 -3.506e-20)
(-2.72373 0.00214077 8.663e-20)
(-2.72598 0.00113897 4.35652e-20)
(-2.72681 0.000224104 6.52309e-20)
(-2.72616 -0.000688755 -3.9962e-20)
(-2.72402 -0.0016124 1.27551e-20)
(-2.72034 -0.00255279 4.4399e-21)
(-2.7151 -0.0035012 -8.15538e-21)
(-2.70824 -0.00446036 -1.76973e-20)
(-2.69975 -0.00541877 -2.66088e-20)
(-2.68961 -0.00638024 -4.33174e-20)
(-2.6778 -0.00733256 -5.93493e-20)
(-2.66433 -0.00827941 3.13965e-20)
(-2.64919 -0.00920874 -4.37543e-20)
(-2.63241 -0.0101235 -4.26928e-20)
(-2.61399 -0.011013 7.49768e-20)
(-2.59396 -0.0118797 -4.40989e-21)
(-2.57235 -0.0127152 -4.76107e-20)
(-2.5492 -0.0135207 -4.92875e-20)
(-2.52454 -0.0142884 4.51202e-20)
(-2.49842 -0.0150188 3.34253e-21)
(-2.47087 -0.0157075 1.32688e-20)
(-2.44194 -0.0163568 -8.57272e-21)
(-2.4117 -0.0169675 -2.46666e-20)
(-2.38019 -0.0175388 2.04782e-20)
(-2.34749 -0.0180704 -1.76898e-20)
(-2.31364 -0.0185522 1.55849e-20)
(-2.27871 -0.0189771 2.04571e-20)
(-2.24276 -0.0193534 -6.98728e-21)
(-2.20584 -0.0197334 1.8453e-20)
(-2.16797 -0.0200163 -1.52577e-20)
(-2.12927 -0.0202065 3.3898e-20)
(-2.08975 -0.0202677 -2.63199e-21)
(-2.04955 -0.0201139 -2.71629e-20)
(-2.0087 -0.0197791 4.96712e-21)
(-1.96722 -0.0197502 -7.21814e-22)
(-1.925 -0.0200411 3.68145e-22)
(-1.88212 -0.0202369 -5.352e-21)
(-1.83867 -0.0204157 1.09695e-20)
(-1.79466 -0.0205777 7.1667e-21)
(-1.75013 -0.0207239 -2.20587e-21)
(-1.70511 -0.0208566 4.84851e-20)
(-1.65961 -0.0209782 4.76435e-20)
(-1.61367 -0.0210877 -2.73059e-20)
(-1.56731 -0.0211872 -3.07864e-20)
(-1.52057 -0.0212753 -5.69473e-20)
(-1.47349 -0.0213529 -8.5121e-20)
(-1.4261 -0.02142 -6.55311e-20)
(-1.37845 -0.0214762 -1.07891e-19)
(-1.33056 -0.0215222 5.4094e-20)
(-1.28248 -0.0215585 5.09287e-20)
(-1.23424 -0.021586 8.87551e-20)
(-1.18587 -0.0216048 6.65054e-20)
(-1.13741 -0.0216169 1.90352e-19)
(-1.08887 -0.0216228 1.2965e-20)
(-1.04029 -0.0216231 8.35651e-21)
(-0.991676 -0.021619 -1.46362e-19)
(-0.943049 -0.0216116 2.32669e-19)
(-0.89442 -0.0216014 -1.38797e-19)
(-0.845798 -0.0215894 1.93655e-20)
(-0.797189 -0.0215758 7.02642e-20)
(-0.748595 -0.0215623 2.57044e-20)
(-0.700022 -0.0215486 6.5586e-20)
(-0.651471 -0.0215371 3.10915e-19)
(-0.60294 -0.0215295 1.53359e-19)
(-0.554427 -0.0215298 7.24203e-20)
(-0.505922 -0.0215409 1.02528e-19)
(-0.457411 -0.0215669 2.89296e-19)
(-0.408875 -0.0216102 -1.26492e-20)
(-0.360288 -0.0216756 3.32793e-19)
(-0.311625 -0.0217616 4.79696e-19)
(-0.262869 -0.0218651 4.66197e-19)
(-0.213997 -0.0219901 -1.69568e-20)
(-0.165013 -0.0221523 4.38669e-20)
(-0.115985 -0.0223163 -1.03689e-19)
(-0.067079 -0.0224019 -1.30035e-18)
(-0.0186289 -0.0222428 6.44004e-19)
(0.0289269 -0.0213281 4.54446e-19)
(0.0718869 -0.0193171 -8.41149e-19)
(0.120581 -0.0168817 -7.67053e-19)
(0.130749 -0.00549026 1.12703e-18)
(-6.22744e-05 0.0190118 2.36576e-18)
(-0.00561046 0.0330472 -1.75554e-18)
(-0.0115195 0.0343581 -7.50519e-19)
(-0.0122179 0.0255164 2.14424e-18)
(0.000415977 0.00506659 4.52944e-19)
(0.0274 -0.0293149 1.93743e-19)
(0.0634833 -0.0681204 -1.22355e-19)
(0.105155 -0.100154 -4.51201e-19)
(0.148551 -0.120021 -2.54382e-20)
(0.190325 -0.127309 -3.23362e-19)
(0.228372 -0.124518 1.71898e-20)
(0.26179 -0.114864 -4.45901e-21)
(0.290302 -0.101082 9.94801e-20)
(0.313952 -0.085152 1.42294e-20)
(0.332983 -0.0683589 -3.10201e-20)
(0.34771 -0.0514363 -2.59861e-19)
(0.35849 -0.0347519 -5.60775e-20)
(0.365597 -0.018428 2.45716e-19)
(0.369613 -0.00245371 -2.88463e-19)
(0.370982 0.013196 8.05808e-20)
(0.369495 0.0283619 7.32485e-21)
(0.364798 0.0427192 1.60444e-19)
(0.356462 0.0558314 1.89328e-19)
(0.344064 0.0670673 1.6539e-19)
(0.327307 0.0756566 2.22162e-19)
(0.306147 0.0807577 -1.3199e-19)
(0.280945 0.0816155 3.50898e-20)
(0.25257 0.0778082 4.77282e-20)
(0.222405 0.0694877 -2.01771e-19)
(0.192283 0.0574291 -1.58503e-19)
(0.164389 0.042849 -2.9473e-19)
(0.140958 0.0269327 -1.0558e-19)
(0.124262 0.0103648 -9.07355e-19)
(0.114878 -0.0068497 4.06538e-19)
(0.114708 -0.0239399 -5.5232e-19)
(0.123015 -0.0403265 5.94704e-19)
(0.137557 -0.0544382 -4.94809e-19)
(0.153602 -0.0618535 1.20158e-19)
(0.165995 -0.0590392 2.74686e-19)
(0.171737 -0.0472096 -2.05569e-19)
(0.169985 -0.0304262 1.78032e-19)
(0.161633 -0.0146751 -7.82331e-20)
(0.147605 -0.00364527 -3.29856e-19)
(0.127255 0.00264129 -1.06808e-18)
(0.0938653 0.00636082 -8.72121e-19)
(0.0371416 0.0159442 1.24277e-20)
(-0.0584455 0.0494253 -1.03394e-18)
(-0.184276 0.0965484 -1.7092e-19)
(-0.322749 0.143651 4.14342e-19)
(-0.467139 0.188777 4.72437e-19)
(-0.616464 0.227098 8.98323e-20)
(-0.766921 0.255542 -3.27528e-20)
(-0.914302 0.274638 -2.98253e-20)
(-1.05566 0.284782 -8.72351e-20)
(-1.18814 0.286214 -6.22913e-20)
(-1.30846 0.279234 -1.5316e-19)
(-1.41705 0.266107 -1.71308e-19)
(-1.51318 0.248918 -3.70842e-20)
(-1.59785 0.229978 2.38545e-20)
(-1.67287 0.210267 -1.1828e-19)
(-1.73918 0.190797 8.88308e-20)
(-1.79834 0.172717 -3.77395e-20)
(-1.85179 0.156154 -1.49696e-19)
(-1.90012 0.141299 1.1441e-20)
(-1.94455 0.128279 1.06954e-19)
(-1.98564 0.116858 -4.10025e-20)
(-2.02404 0.106934 4.51943e-21)
(-2.06013 0.0983108 -9.4406e-20)
(-2.09427 0.0908073 3.24574e-20)
(-2.12667 0.0842494 -5.52482e-20)
(-2.15753 0.0784814 9.86505e-22)
(-2.18696 0.0733685 -6.81719e-20)
(-2.21508 0.0687975 2.23061e-21)
(-2.24196 0.0646731 -4.03315e-20)
(-2.26767 0.0609218 5.33761e-20)
(-2.29226 0.0574792 -9.20502e-20)
(-2.31577 0.0543018 1.19726e-20)
(-2.33824 0.051346 -9.27729e-20)
(-2.3597 0.0485871 3.66107e-21)
(-2.38018 0.0459906 7.30194e-20)
(-2.3997 0.0435455 1.43016e-20)
(-2.41828 0.0412248 -4.26877e-20)
(-2.43593 0.0390239 -6.37118e-20)
(-2.45268 0.0369176 3.64521e-20)
(-2.46853 0.0349061 1.02501e-19)
(-2.48349 0.0329667 -3.23615e-20)
(-2.49754 0.0310983 -1.09182e-21)
(-2.51069 0.0292755 -2.71394e-21)
(-2.5229 0.027492 6.49472e-20)
(-2.53418 0.0257274 2.2747e-19)
(-2.54453 0.0239615 4.94543e-20)
(-2.55394 0.0221821 9.25238e-20)
(-2.56241 0.0203702 -2.00536e-19)
(-2.56989 0.0185192 -9.63493e-20)
(-2.57636 0.0166094 6.27118e-20)
(-2.58182 0.014639 1.27542e-19)
(-2.58626 0.0125975 -7.01714e-20)
(-2.58971 0.0104958 -2.85281e-20)
(-2.59222 0.00833564 -4.92161e-20)
(-2.59385 0.00615462 7.17452e-20)
(-2.59465 0.00398219 -9.98517e-20)
(-2.59464 0.00188347 -7.52089e-20)
(-2.59334 -0.000156551 -4.8617e-20)
(-2.59067 -0.00219381 1.60935e-19)
(-2.58656 -0.00423735 -1.8205e-20)
(-2.58095 -0.00628922 1.13989e-20)
(-2.5738 -0.00833727 5.95272e-20)
(-2.56507 -0.0103807 1.28478e-19)
(-2.55473 -0.0124052 -1.7571e-20)
(-2.54278 -0.0144122 -4.94348e-20)
(-2.5292 -0.0163871 3.89517e-21)
(-2.514 -0.0183314 -9.12831e-20)
(-2.49717 -0.0202305 9.87823e-20)
(-2.47874 -0.0220849 3.68797e-20)
(-2.45871 -0.0238814 2.90065e-20)
(-2.43714 -0.0256211 7.14556e-20)
(-2.41403 -0.0272936 8.51656e-20)
(-2.38944 -0.0288993 -4.42116e-20)
(-2.3634 -0.0304259 2.84151e-20)
(-2.33596 -0.0318702 4.04431e-20)
(-2.30716 -0.0332235 4.81287e-20)
(-2.27705 -0.0344874 -5.44241e-21)
(-2.24568 -0.0356649 -2.11294e-21)
(-2.21312 -0.0367592 -3.65616e-20)
(-2.17942 -0.0377773 -3.28906e-20)
(-2.14465 -0.0387179 -3.39341e-20)
(-2.10885 -0.0395906 3.20043e-20)
(-2.07208 -0.0403928 -4.32057e-21)
(-2.03438 -0.0411329 -1.67918e-20)
(-1.99581 -0.0418075 -3.33059e-21)
(-1.9564 -0.0424278 -1.60631e-20)
(-1.91619 -0.0429967 -1.83045e-20)
(-1.87521 -0.0435388 -7.93469e-21)
(-1.83344 -0.0440465 2.97539e-21)
(-1.79095 -0.0445077 1.14973e-21)
(-1.74785 -0.0448777 2.72701e-22)
(-1.70417 -0.0451779 2.51266e-21)
(-1.65993 -0.0454216 -2.26031e-20)
(-1.61514 -0.0456194 2.62508e-22)
(-1.56985 -0.0457705 2.73278e-20)
(-1.52406 -0.0458776 -1.93966e-20)
(-1.4778 -0.0459431 2.7119e-20)
(-1.4311 -0.045968 1.28156e-20)
(-1.38399 -0.0459569 -2.67251e-20)
(-1.3365 -0.0459103 -8.84317e-21)
(-1.28867 -0.0458294 -4.57612e-20)
(-1.24052 -0.0457142 -2.9006e-20)
(-1.1921 -0.045566 6.37125e-20)
(-1.14344 -0.045385 1.04595e-19)
(-1.09457 -0.0451742 -1.45568e-19)
(-1.04554 -0.044936 4.51762e-20)
(-0.996373 -0.0446736 9.04752e-21)
(-0.947098 -0.0443898 -2.55526e-19)
(-0.897743 -0.0440893 6.3587e-21)
(-0.848332 -0.0437744 4.04462e-21)
(-0.798883 -0.0434487 -8.5549e-20)
(-0.749414 -0.0431155 1.09515e-19)
(-0.699938 -0.0427779 1.5567e-19)
(-0.650465 -0.0424396 1.63742e-19)
(-0.600999 -0.0421019 1.4699e-19)
(-0.551545 -0.0417672 -2.20774e-19)
(-0.502104 -0.0414359 2.84947e-20)
(-0.452678 -0.0411111 -6.18147e-20)
(-0.403264 -0.0407939 1.69412e-19)
(-0.353854 -0.0404892 -5.21533e-20)
(-0.304438 -0.0402009 2.14694e-19)
(-0.255 -0.0399342 -2.17002e-19)
(-0.205517 -0.0396912 -3.42496e-19)
(-0.155965 -0.0394776 -5.31757e-19)
(-0.106319 -0.0392895 -2.55292e-19)
(-0.0565541 -0.0391206 -1.17514e-19)
(-0.00665914 -0.0389507 5.74786e-20)
(0.0432413 -0.038738 3.5147e-20)
(0.0931234 -0.0384422 -4.04027e-19)
(0.143015 -0.0380095 -3.72651e-19)
(0.192723 -0.0372734 5.10306e-19)
(0.242363 -0.0359111 6.18664e-19)
(0.289626 -0.033623 5.75371e-19)
(0.340142 -0.0300093 2.87286e-19)
(0.370134 -0.0185452 -6.13402e-19)
(0.000453051 0.0213547 3.04899e-19)
(0.000930431 0.0368512 2.763e-18)
(0.00632953 0.0303052 2.86779e-18)
(0.0242902 2.33967e-05 -1.9557e-18)
(0.0600902 -0.0544621 3.4799e-19)
(0.107315 -0.115888 -1.58127e-19)
(0.156403 -0.165544 -6.3851e-20)
(0.200683 -0.194627 4.79719e-19)
(0.237462 -0.203496 3.70929e-19)
(0.266663 -0.196973 3.0466e-19)
(0.289413 -0.180619 1.36172e-19)
(0.307092 -0.15895 1.28474e-19)
(0.320837 -0.135009 -4.08085e-19)
(0.331445 -0.110601 -2.52537e-19)
(0.339445 -0.0866946 9.05311e-20)
(0.345192 -0.0637421 -1.95704e-19)
(0.348933 -0.0419094 1.91299e-19)
(0.350866 -0.0212446 2.86797e-20)
(0.35116 -0.00170484 2.86131e-19)
(0.350157 0.0168233 2.49212e-19)
(0.348106 0.0345381 -2.35916e-19)
(0.345254 0.0515283 -6.35887e-19)
(0.341704 0.0676865 -1.14892e-19)
(0.337348 0.0826428 -7.44885e-19)
(0.331824 0.0957599 1.68173e-19)
(0.324575 0.106139 2.66072e-19)
(0.314958 0.112704 -1.08476e-19)
(0.302422 0.114384 3.83606e-19)
(0.286814 0.110372 2.14204e-19)
(0.268592 0.100388 4.99275e-19)
(0.248965 0.0847586 -2.67055e-19)
(0.229726 0.0643263 -1.84543e-19)
(0.212964 0.0402197 1.02397e-19)
(0.200335 0.0138757 -1.3906e-19)
(0.192122 -0.0138835 -2.05899e-19)
(0.187134 -0.0405155 -1.27377e-20)
(0.18051 -0.0584863 -6.1804e-19)
(0.167524 -0.0606887 2.00413e-19)
(0.14673 -0.0477451 -4.77645e-19)
(0.118659 -0.0251472 -1.62906e-19)
(0.083407 0.00303527 1.52671e-19)
(0.0381758 0.0326028 -1.81827e-19)
(-0.0274396 0.0618948 -3.59285e-19)
(-0.119707 0.101061 7.32944e-19)
(-0.234782 0.152261 5.89644e-19)
(-0.367972 0.209676 -2.97815e-19)
(-0.511627 0.268363 1.07121e-19)
(-0.65796 0.323373 -1.0295e-19)
(-0.801471 0.369345 -1.56141e-19)
(-0.937555 0.405189 -6.72288e-20)
(-1.06198 0.430437 -6.54468e-20)
(-1.17265 0.443749 1.14514e-19)
(-1.26922 0.445598 1.83637e-20)
(-1.35158 0.43697 7.98016e-20)
(-1.42123 0.419247 8.80264e-21)
(-1.48044 0.394918 9.80839e-21)
(-1.5319 0.366869 4.13283e-20)
(-1.57745 0.337199 6.33006e-20)
(-1.61878 0.307664 -1.06024e-20)
(-1.65723 0.279217 2.02392e-19)
(-1.69384 0.25272 1.45384e-19)
(-1.72919 0.228877 3.35717e-20)
(-1.76353 0.207712 7.49676e-20)
(-1.79705 0.189108 -1.74424e-19)
(-1.82975 0.172952 2.57994e-20)
(-1.86161 0.158914 1.01166e-19)
(-1.8926 0.146695 -1.62548e-19)
(-1.9227 0.136015 -7.37555e-20)
(-1.95188 0.126628 4.96052e-20)
(-1.98014 0.118316 3.88816e-20)
(-2.00745 0.110895 -8.26309e-20)
(-2.0338 0.104208 1.42879e-19)
(-2.0592 0.0981313 1.67433e-20)
(-2.08365 0.0925598 5.16808e-20)
(-2.10716 0.0874131 -1.69835e-19)
(-2.12972 0.082625 1.64575e-19)
(-2.15137 0.078146 3.462e-20)
(-2.1721 0.0739328 -7.14982e-20)
(-2.19193 0.069954 -1.30131e-19)
(-2.21089 0.0661789 -6.45617e-20)
(-2.22898 0.0625875 1.03712e-20)
(-2.24621 0.0591558 2.78636e-20)
(-2.26262 0.0558686 -1.31887e-20)
(-2.2782 0.0527047 -9.82923e-20)
(-2.29297 0.0496524 -2.69396e-20)
(-2.30694 0.0466913 -2.98094e-20)
(-2.3201 0.0438085 1.78409e-20)
(-2.33245 0.0409819 -6.17155e-20)
(-2.34398 0.0381964 -8.85131e-20)
(-2.35467 0.0354285 -1.08946e-19)
(-2.36454 0.0326607 3.51359e-20)
(-2.37359 0.0298752 -1.28514e-19)
(-2.38178 0.0270644 1.25031e-19)
(-2.38911 0.024218 1.09142e-20)
(-2.39555 0.0213346 -2.95425e-20)
(-2.40107 0.0184089 -5.51264e-20)
(-2.40564 0.0154431 1.90758e-20)
(-2.40923 0.0124362 9.20639e-20)
(-2.41181 0.00939197 7.60583e-20)
(-2.41333 0.00631013 3.37064e-20)
(-2.41372 0.0031844 4.06485e-20)
(-2.4129 -3.66553e-06 2.03505e-20)
(-2.41078 -0.00325701 1.88442e-20)
(-2.4073 -0.00655146 -2.61654e-19)
(-2.4024 -0.00987499 5.15856e-20)
(-2.39604 -0.0132108 4.68195e-20)
(-2.38816 -0.016547 -9.12928e-20)
(-2.37874 -0.0198679 7.77551e-20)
(-2.36775 -0.0231626 -2.59253e-20)
(-2.35518 -0.0264176 1.12553e-19)
(-2.34102 -0.029622 8.19421e-20)
(-2.32527 -0.0327634 5.76326e-20)
(-2.30795 -0.0358302 -3.79185e-20)
(-2.28907 -0.0388112 4.57718e-20)
(-2.26865 -0.0416955 2.94487e-20)
(-2.24672 -0.0444747 -3.51439e-20)
(-2.22333 -0.0471404 -5.24501e-20)
(-2.1985 -0.0496855 1.6288e-19)
(-2.17229 -0.0520999 2.41967e-20)
(-2.14474 -0.0543751 -5.46321e-20)
(-2.11588 -0.0565038 -1.35639e-19)
(-2.08578 -0.0584869 -1.69751e-20)
(-2.05448 -0.0603273 -1.1689e-21)
(-2.02205 -0.0620321 -4.51972e-20)
(-1.98854 -0.063606 4.42871e-21)
(-1.95401 -0.0650536 3.36406e-20)
(-1.91851 -0.0663795 -8.90524e-20)
(-1.88209 -0.0675896 2.83088e-20)
(-1.84479 -0.0686896 1.05312e-20)
(-1.80665 -0.0696791 3.7878e-20)
(-1.76772 -0.0705595 -9.40776e-21)
(-1.72802 -0.0713322 1.72129e-20)
(-1.68759 -0.0720137 3.53992e-20)
(-1.64644 -0.072617 2.90834e-21)
(-1.60464 -0.0731662 -5.92212e-21)
(-1.56224 -0.0736459 5.51371e-22)
(-1.51928 -0.0740387 -1.00448e-21)
(-1.47576 -0.0743533 7.15934e-21)
(-1.43172 -0.0745946 1.27736e-20)
(-1.38717 -0.0747648 -1.40542e-21)
(-1.34214 -0.0748667 8.62153e-21)
(-1.29665 -0.074903 -6.96209e-20)
(-1.25072 -0.0748772 -9.0567e-21)
(-1.20439 -0.0747931 -9.57176e-21)
(-1.15768 -0.074653 -1.80032e-20)
(-1.11062 -0.0744574 8.09852e-20)
(-1.06326 -0.0742059 -2.34499e-20)
(-1.01561 -0.0738999 -4.94091e-20)