/*--------------------------------*- C++ -*----------------------------------*\
  =========                 |
  \\      /  F ield         | OpenFOAM: The Open Source CFD Toolbox
   \\    /   O peration     | Website:  https://openfoam.org
    \\  /    A nd           | Version:  13
     \\/     M anipulation  |
\*---------------------------------------------------------------------------*/
FoamFile
{
    format      ascii;
    class       volScalarField;
    location    "1800";
    object      k;
}
// * * * * * * * * * * * * * * * * * * * * * * * * * * * * * * * * * * * * * //

dimensions      [0 2 -2 0 0 0 0];

internalField   nonuniform List<scalar> 
12225
(
0.674408
1.34337
1.62829
1.7689
1.73889
1.71573
1.81022
1.50444
1.44524
1.23297
2.38039
2.91544
2.84048
2.78978
2.81254
2.17268
1.58492
1.54038
0.032935
0.0198484
0.0439726
0.0804592
0.116263
0.163969
0.191382
0.226688
0.229194
0.231901
0.325722
0.419354
0.507376
0.55034
0.579035
0.60545
0.642513
0.645658
0.10768
0.0272007
0.0184093
0.0166774
0.0167923
0.0260929
0.0302323
0.0338709
0.0378883
0.0410788
0.04534
0.0530123
0.0608523
0.0685127
0.075276
0.0825832
0.087645
0.0907987
0.234713
0.0958353
0.073975
0.0551023
0.0753008
0.0637049
0.0805831
0.0880294
0.0814796
0.0718155
0.0633069
0.0547674
0.0459539
0.0382377
0.0307549
0.0256035
0.023675
0.0239485
0.36653
0.186178
0.118822
0.118772
0.165602
0.153071
0.168025
0.193086
0.202681
0.196339
0.180574
0.157869
0.133785
0.11184
0.0906531
0.0743722
0.0667952
0.0655214
0.398524
0.279496
0.201745
0.203596
0.228776
0.264725
0.256503
0.271457
0.276333
0.27248
0.262604
0.247644
0.231556
0.213895
0.198997
0.180444
0.171428
0.163792
0.398288
0.33464
0.308729
0.297976
0.29954
0.31621
0.309091
0.314609
0.316592
0.313416
0.309019
0.301035
0.294421
0.28495
0.278729
0.269344
0.264561
0.256064
0.380285
0.364219
0.35003
0.338375
0.337172
0.342374
0.336203
0.338152
0.338208
0.335515
0.332894
0.328206
0.324888
0.319842
0.31673
0.311569
0.308506
0.303271
0.375272
0.369523
0.363953
0.359646
0.356059
0.355163
0.352714
0.351721
0.349986
0.347377
0.345196
0.342137
0.339889
0.336768
0.334607
0.331422
0.329177
0.325799
0.374187
0.371013
0.367991
0.365365
0.362906
0.360825
0.358926
0.357157
0.355327
0.353152
0.351246
0.348993
0.347158
0.344951
0.343198
0.340963
0.339186
0.336804
0.373913
0.371438
0.369101
0.366902
0.364893
0.362905
0.361091
0.359303
0.357593
0.355765
0.354091
0.352296
0.350718
0.348994
0.347501
0.345787
0.344316
0.342537
0.37385
0.37153
0.369352
0.367266
0.365341
0.363457
0.361704
0.359982
0.358361
0.356715
0.35518
0.35362
0.352191
0.350714
0.349377
0.34794
0.346654
0.34521
0.373836
0.371552
0.369404
0.367353
0.365434
0.363589
0.361855
0.360179
0.358598
0.35705
0.355593
0.354157
0.352818
0.351481
0.350241
0.348974
0.347805
0.346579
0.37383
0.371555
0.369407
0.367364
0.365438
0.3636
0.361864
0.360204
0.358633
0.357123
0.355695
0.354316
0.353014
0.35175
0.350557
0.349387
0.348281
0.347188
0.373829
0.371554
0.369401
0.367359
0.365425
0.363587
0.361844
0.360186
0.35861
0.357109
0.355682
0.354319
0.353022
0.351782
0.350599
0.349466
0.348383
0.347343
0.373827
0.371552
0.369396
0.367352
0.365414
0.363572
0.361825
0.360163
0.358584
0.35708
0.35565
0.354285
0.352986
0.351746
0.350564
0.349435
0.348357
0.347326
0.373826
0.37155
0.369393
0.367346
0.365405
0.363562
0.36181
0.360146
0.358562
0.357056
0.355621
0.354254
0.352951
0.351709
0.350524
0.349393
0.348313
0.347282
0.373825
0.37155
0.369391
0.367343
0.3654
0.363555
0.361801
0.360134
0.358549
0.35704
0.355602
0.354233
0.352928
0.351683
0.350496
0.349363
0.348281
0.347249
0.373825
0.37155
0.369391
0.367343
0.365399
0.363553
0.361798
0.36013
0.358544
0.357033
0.355595
0.354224
0.352918
0.351672
0.350484
0.349349
0.348268
0.347234
0.373825
0.371551
0.369392
0.367346
0.365402
0.363557
0.361803
0.360137
0.35855
0.357041
0.355603
0.354233
0.352927
0.351682
0.350494
0.34936
0.348279
0.347245
0.373826
0.371552
0.369396
0.36735
0.36541
0.363566
0.361815
0.360149
0.358566
0.357058
0.355622
0.354253
0.352949
0.351705
0.350519
0.349386
0.348306
0.347274
0.373826
0.371555
0.369402
0.36736
0.365421
0.363581
0.361833
0.360172
0.358591
0.357087
0.355654
0.354288
0.352985
0.351742
0.350556
0.349424
0.348344
0.347313
0.373826
0.371561
0.369411
0.367374
0.365438
0.363603
0.361861
0.360209
0.358635
0.357137
0.355704
0.354334
0.353022
0.35177
0.35057
0.349429
0.348338
0.347301
0.373821
0.371576
0.36943
0.367394
0.365455
0.363633
0.361909
0.360279
0.358716
0.357215
0.355757
0.354348
0.35298
0.351669
0.350405
0.349211
0.348063
0.346986
0.373796
0.371621
0.369474
0.367419
0.365473
0.363689
0.36201
0.360427
0.358854
0.357306
0.355726
0.354164
0.352597
0.351095
0.349632
0.348272
0.346962
0.345761
0.373723
0.371812
0.369664
0.367559
0.365634
0.363954
0.362356
0.360816
0.359139
0.357407
0.355467
0.353489
0.35142
0.349445
0.347513
0.345756
0.344084
0.34259
0.37367
0.372959
0.370946
0.368825
0.367053
0.36546
0.363935
0.362291
0.36027
0.358129
0.355359
0.352466
0.349349
0.34638
0.343564
0.340983
0.338742
0.336639
0.375121
0.380512
0.379452
0.378811
0.377786
0.37614
0.374292
0.372207
0.369367
0.367652
0.364078
0.36011
0.356223
0.352407
0.349723
0.347114
0.346082
0.34452
0.402188
0.436637
0.455015
0.461963
0.477415
0.49075
0.505683
0.516602
0.528508
0.536457
0.546342
0.553357
0.564375
0.573228
0.587188
0.599548
0.614578
0.627517
1.04005
1.31437
1.49053
1.57569
1.61022
1.60444
1.58493
1.55113
1.51293
1.47443
1.43758
1.40317
1.37174
1.34344
1.31802
1.29568
1.27592
1.25856
2.00045e-08
4.90915e-07
2.46958e-06
9.55493e-06
3.11574e-05
9.17857e-05
0.000238834
0.000473373
0.000762673
0.00107315
0.00134694
0.00156132
0.0017004
0.00174876
0.00173156
0.00165935
0.0015187
0.00131241
0.0010995
0.000927216
0.000769027
0.000620996
0.000479706
0.000350274
0.000233228
0.000140709
7.68545e-05
3.94246e-05
2.00052e-05
1.06632e-05
6.20957e-06
4.20838e-06
3.83863e-06
6.17048e-06
9.07161e-06
6.80219e-05
0.000162857
0.000445704
0.000800174
0.00104391
0.00101608
0.00087713
0.000689728
0.000597363
0.000620958
0.000775445
0.000982113
0.001726
0.00322154
0.00824396
0.0268834
0.0645407
0.107488
0.134778
0.145497
0.146508
0.148918
0.146368
0.129088
0.154354
0.15866
0.141841
0.161141
0.158941
0.165136
0.176554
0.184146
0.193169
0.200484
0.208637
0.216109
0.223755
0.231172
0.238556
0.245846
0.253068
0.260226
0.267316
0.274351
0.281319
0.288232
0.295079
0.301868
0.308588
0.315245
0.321831
0.328343
0.33478
0.341132
0.347402
0.353581
0.359659
0.365632
0.371482
0.377209
0.382792
0.38823
0.393502
0.398611
0.403543
0.408313
0.412941
0.41748
0.421908
0.426157
0.430272
0.434217
0.438015
0.441639
0.445105
0.448389
0.451506
0.454436
0.45719
0.459752
0.462133
0.464321
0.466323
0.468132
0.469753
0.471184
0.472428
0.47349
0.474365
0.475066
0.475581
0.475937
0.476131
0.476196
0.476068
0.475819
0.475115
0.474719
0.473828
0.472989
0.472002
0.47098
0.469862
0.468541
0.467093
0.465464
0.463855
0.46204
0.460199
0.458261
0.456251
0.454167
0.452011
0.449787
0.447491
0.445128
0.442694
0.440193
0.437627
0.435012
0.432293
0.429586
0.426753
0.423971
0.421053
0.41824
0.415247
0.412328
0.409298
0.406261
0.403176
0.400052
0.3969
0.393715
0.390511
0.387284
0.384042
0.380772
0.377462
0.374067
0.370507
0.366654
0.362233
0.356442
0.339676
9.07932e-08
2.53489e-06
1.65973e-05
6.99305e-05
0.000251582
0.000733579
0.00170358
0.00308246
0.00466558
0.00629848
0.00778645
0.00900094
0.00991761
0.010423
0.0107862
0.0107674
0.0105687
0.0101795
0.00959073
0.00879888
0.00779372
0.0066379
0.00537185
0.00409647
0.00286102
0.00191032
0.00121971
0.000758515
0.000460836
0.000279678
0.0001759
0.000120257
9.74708e-05
0.000112786
6.89608e-05
0.000790517
0.00175777
0.00452429
0.00765594
0.0100233
0.0107215
0.0104686
0.00985537
0.0101427
0.0121705
0.0166162
0.0229261
0.0348714
0.0552359
0.0802588
0.105684
0.130367
0.14972
0.164735
0.176099
0.186681
0.20025
0.21636
0.232616
0.251263
0.267745
0.286382
0.304453
0.323839
0.341193
0.360824
0.378476
0.396696
0.414331
0.431946
0.44933
0.466612
0.483775
0.500852
0.517857
0.534799
0.551693
0.568535
0.585337
0.602092
0.618806
0.63547
0.652085
0.668642
0.685139
0.701567
0.717922
0.734194
0.750376
0.76647
0.782456
0.798328
0.814066
0.829657
0.845085
0.860327
0.875365
0.890169
0.904714
0.918963
0.932883
0.946427
0.95957
0.972404
0.984979
0.997274
1.00928
1.02099
1.03237
1.04343
1.05415
1.06451
1.07449
1.0841
1.09331
1.10212
1.11051
1.11849
1.12603
1.13314
1.13981
1.14604
1.15183
1.15718
1.16209
1.16655
1.17057
1.17416
1.17731
1.18003
1.18233
1.1842
1.1857
1.18676
1.18741
1.18776
1.18787
1.18783
1.18771
1.18738
1.18665
1.18569
1.18439
1.18286
1.18106
1.179
1.1767
1.17414
1.17134
1.16828
1.16498
1.16143
1.15763
1.15357
1.14927
1.14472
1.1399
1.13489
1.12962
1.1242
1.11853
1.11267
1.10658
1.10027
1.09375
1.087
1.08002
1.07284
1.06545
1.05786
1.05009
1.04214
1.034
1.02566
1.01703
1.008
0.998372
0.987875
0.974327
0.945522
1.86817e-07
5.53111e-06
4.14703e-05
0.000189764
0.000731926
0.00182704
0.00381168
0.00612929
0.00847274
0.010625
0.0124363
0.0138502
0.0148488
0.0154476
0.0157861
0.0157782
0.0155959
0.0152179
0.0146772
0.0140095
0.0132036
0.0122652
0.0111673
0.00992418
0.00852894
0.00695901
0.00532845
0.00386931
0.00259187
0.0017102
0.0011555
0.000830663
0.00063392
0.000636053
0.000747968
0.0033955
0.00813949
0.0159416
0.0227001
0.0274216
0.0298839
0.0309926
0.0343349
0.0438194
0.0604281
0.0774638
0.095646
0.116385
0.136958
0.156962
0.177987
0.198526
0.219275
0.240786
0.264836
0.291047
0.31728
0.344828
0.372267
0.400493
0.427447
0.454532
0.480804
0.506897
0.532185
0.55719
0.581499
0.605535
0.629176
0.652568
0.675725
0.698703
0.721531
0.744237
0.766842
0.789359
0.8118
0.834167
0.856464
0.878689
0.900841
0.922914
0.944902
0.966798
0.988595
1.01028
1.03185
1.05329
1.0746
1.09576
1.11677
1.13762
1.15828
1.17874
1.199
1.21903
1.23883
1.25838
1.27766
1.29666
1.31538
1.33381
1.35193
1.36972
1.38717
1.40424
1.42093
1.4372
1.45304
1.46843
1.48335
1.49779
1.51172
1.52514
1.53801
1.55034
1.5621
1.57328
1.58388
1.59389
1.6033
1.61211
1.62032
1.62792
1.63492
1.64131
1.6471
1.65229
1.65689
1.66091
1.66436
1.66725
1.6696
1.67141
1.67271
1.67345
1.67373
1.67367
1.67312
1.67223
1.67091
1.66919
1.66708
1.66459
1.66172
1.65849
1.65489
1.65092
1.6466
1.64192
1.63687
1.63146
1.62569
1.61955
1.61304
1.60617
1.5989
1.59132
1.58335
1.5751
1.56647
1.55755
1.54828
1.53871
1.52882
1.51861
1.5081
1.49728
1.48618
1.47482
1.46321
1.45137
1.43932
1.42704
1.41449
1.4016
1.38822
1.37417
1.35734
1.32986
6.5673e-07
1.95932e-05
0.000153827
0.00065362
0.00201499
0.00483017
0.00831673
0.0117645
0.0148014
0.0172508
0.0190494
0.0202405
0.0208932
0.0211026
0.0210094
0.0206993
0.0201748
0.0195259
0.0187799
0.0179656
0.0170784
0.0161248
0.0150839
0.0139448
0.0126774
0.0112666
0.00971943
0.00810684
0.00657728
0.0050752
0.00388389
0.00291155
0.00244571
0.00292195
0.00589019
0.0152677
0.0291905
0.0411972
0.0503268
0.0576807
0.0656817
0.0765322
0.0904367
0.105754
0.12075
0.136556
0.15429
0.174703
0.195925
0.219704
0.24504
0.272056
0.300689
0.330858
0.362348
0.394607
0.427008
0.459566
0.491897
0.523927
0.555297
0.586264
0.616605
0.64649
0.67583
0.704731
0.733201
0.761348
0.789206
0.816841
0.844293
0.8716
0.89879
0.925886
0.952904
0.979852
1.00674
1.03356
1.06032
1.08701
1.11362
1.14015
1.16658
1.19291
1.21912
1.2452
1.27114
1.29693
1.32256
1.34801
1.37328
1.39836
1.42323
1.44787
1.47227
1.49643
1.52033
1.54395
1.56728
1.59032
1.61303
1.6354
1.6574
1.67901
1.70019
1.72092
1.74118
1.76093
1.78017
1.79886
1.81698
1.83451
1.85142
1.86771
1.88334
1.8983
1.91257
1.92615
1.93901
1.95115
1.96257
1.97325
1.9832
1.9924
2.00087
2.00861
2.01561
2.02188
2.02743
2.03228
2.03642
2.03989
2.04269
2.04484
2.04633
2.0471
2.04729
2.04692
2.04603
2.04462
2.04269
2.04025
2.03732
2.03389
2.02999
2.02562
2.02078
2.01548
2.00972
2.0035
1.99682
1.98969
1.9821
1.97404
1.96551
1.95653
1.94707
1.93718
1.92684
1.91609
1.9049
1.89333
1.88134
1.86897
1.85621
1.84307
1.82957
1.81571
1.80151
1.78702
1.77225
1.75724
1.74201
1.72658
1.71096
1.69514
1.67901
1.66247
1.64379
1.61768
2.18571e-06
6.57039e-05
0.000497165
0.00197136
0.00555344
0.0107122
0.015628
0.0196721
0.0226357
0.0245777
0.0256569
0.0260739
0.0260014
0.0256674
0.0250343
0.0242532
0.0233793
0.0224624
0.0215232
0.020582
0.0196323
0.0186731
0.0176844
0.0166509
0.0155413
0.0143212
0.0129598
0.0114966
0.0100364
0.00865737
0.00717869
0.00635852
0.00747325
0.0134543
0.0287128
0.0478282
0.0650615
0.0788496
0.0898633
0.099847
0.1103
0.121667
0.134064
0.147517
0.163434
0.182513
0.204257
0.228817
0.255562
0.28451
0.314951
0.34682
0.379767
0.413561
0.447919
0.482568
0.517269
0.551953
0.586487
0.62077
0.654699
0.688306
0.721522
0.754397
0.786925
0.819142
0.851086
0.882803
0.914334
0.945719
0.976992
1.00818
1.03931
1.07038
1.10143
1.13243
1.16341
1.19434
1.22523
1.25607
1.28683
1.31751
1.3481
1.37857
1.40892
1.43913
1.46918
1.49906
1.52875
1.55825
1.58754
1.61661
1.64544
1.67401
1.70232
1.73034
1.75807
1.78549
1.81257
1.8393
1.86565
1.8916
1.9171
1.94215
1.9667
1.99073
2.01421
2.03711
2.0594
2.08107
2.10207
2.12238
2.14199
2.16086
2.17897
2.19631
2.21285
2.22858
2.24348
2.25754
2.27075
2.28311
2.29461
2.30524
2.31502
2.32394
2.332
2.3392
2.34557
2.3511
2.35581
2.35972
2.36285
2.3652
2.36676
2.36744
2.36748
2.3668
2.36548
2.36352
2.36094
2.35774
2.35395
2.34958
2.34463
2.33912
2.33304
2.32641
2.31923
2.31151
2.30324
2.29442
2.28507
2.27516
2.26471
2.25372
2.24218
2.23012
2.21754
2.20447
2.19091
2.17688
2.16238
2.14744
2.13206
2.11625
2.10003
2.08341
2.06642
2.04911
2.0315
2.01366
1.99561
1.97742
1.95911
1.94073
1.92222
1.90354
1.88327
1.85744
6.74353e-06
0.000199519
0.00145989
0.00529841
0.0126567
0.019421
0.0244508
0.0277222
0.0295646
0.0303901
0.0304856
0.0302004
0.0295168
0.0285905
0.0275299
0.026411
0.0252788
0.0241729
0.0231071
0.0220934
0.0211206
0.0201823
0.019255
0.018316
0.0173301
0.0162658
0.0150516
0.0136444
0.012037
0.0108415
0.0111928
0.0145838
0.0250998
0.0454333
0.06862
0.0890816
0.104729
0.115851
0.124469
0.132735
0.141959
0.152907
0.167042
0.184364
0.204952
0.228861
0.255472
0.284347
0.314864
0.346726
0.379589
0.413299
0.447669
0.48258
0.517905
0.553536
0.589368
0.625332
0.661351
0.697343
0.733244
0.769029
0.804665
0.84015
0.875479
0.910667
0.945734
0.980704
1.01561
1.05047
1.0853
1.12014
1.15499
1.18987
1.22476
1.25967
1.2946
1.32952
1.36443
1.3993
1.43412
1.46887
1.50353
1.53808
1.5725
1.60676
1.64086
1.67477
1.70847
1.74196
1.7752
1.8082
1.84093
1.87338
1.90552
1.93734
1.96882
1.99994
2.03068
2.06101
2.0909
2.12033
2.14925
2.17764
2.20548
2.23272
2.25934
2.2853
2.31057
2.33513
2.35894
2.38197
2.4042
2.42559
2.44613
2.46578
2.48453
2.50235
2.51922
2.53515
2.5501
2.56407
2.57707
2.58908
2.60011
2.61015
2.6192
2.62729
2.6344
2.64055
2.64577
2.65005
2.65343
2.65591
2.65744
2.65801
2.65781
2.65678
2.65497
2.65242
2.64913
2.64513
2.64043
2.63506
2.62902
2.62232
2.61497
2.60698
2.59836
2.5891
2.57923
2.56873
2.55761
2.54588
2.53353
2.52056
2.50698
2.49282
2.47807
2.46277
2.44691
2.43053
2.41364
2.39625
2.37837
2.36003
2.34122
2.322
2.30238
2.28241
2.26215
2.24166
2.22099
2.20022
2.17941
2.15862
2.13786
2.11711
2.09518
2.06878
2.08734e-05
0.000584781
0.00394395
0.0127499
0.0220025
0.0283034
0.0319851
0.0338885
0.0346213
0.0345768
0.0340732
0.0331006
0.0318818
0.0305287
0.0291217
0.027731
0.0263968
0.0251513
0.0240001
0.0229463
0.0219721
0.0210627
0.0201832
0.0193047
0.0183717
0.0174321
0.0165671
0.0159824
0.0162324
0.0187597
0.026416
0.0421075
0.0646093
0.0879501
0.108344
0.123512
0.133573
0.140785
0.147613
0.155872
0.167411
0.182407
0.200982
0.223045
0.248189
0.275896
0.305445
0.336355
0.368271
0.40102
0.434472
0.46856
0.503223
0.538427
0.574129
0.610289
0.646851
0.683752
0.720928
0.758319
0.795871
0.83354
0.871289
0.909098
0.946952
0.984847
1.02279
1.06079
1.09886
1.13701
1.17527
1.21363
1.2521
1.29068
1.32936
1.36814
1.40698
1.44588
1.4848
1.52372
1.56262
1.60145
1.64021
1.67886
1.71738
1.75574
1.79392
1.83189
1.86963
1.90713
1.94437
1.98133
2.01799
2.05433
2.09032
2.12596
2.16121
2.19605
2.23046
2.2644
2.29785
2.33077
2.36313
2.39489
2.42602
2.45649
2.48627
2.5153
2.54358
2.57104
2.59767
2.62343
2.64829
2.67221
2.69517
2.71713
2.73808
2.75799
2.77684
2.79461
2.81129
2.82686
2.84133
2.85469
2.86693
2.87806
2.88808
2.897
2.90481
2.91154
2.9172
2.9218
2.92536
2.9279
2.92934
2.92976
2.92926
2.92782
2.92547
2.92226
2.9182
2.91333
2.90766
2.90122
2.89402
2.88608
2.8774
2.86801
2.85789
2.84708
2.83556
2.82335
2.81045
2.79688
2.78261
2.76768
2.75207
2.73582
2.71893
2.70144
2.68334
2.66467
2.64544
2.62566
2.60537
2.58456
2.56327
2.54152
2.51937
2.49685
2.47404
2.451
2.42781
2.40456
2.38132
2.35819
2.3352
2.31235
2.28859
2.261
6.18623e-05
0.00160348
0.00934581
0.0222477
0.0307544
0.0355101
0.037929
0.0388749
0.0388289
0.038181
0.0369602
0.0354375
0.0337442
0.0319966
0.030277
0.0286529
0.0271583
0.0258155
0.0246195
0.0235632
0.0226206
0.0217702
0.0209742
0.0201789
0.0194355
0.0189649
0.0192969
0.0216284
0.0278586
0.0408446
0.0600537
0.0817438
0.103035
0.121471
0.135173
0.14431
0.150821
0.157394
0.166303
0.178517
0.194425
0.213943
0.236752
0.262379
0.290194
0.31959
0.350069
0.381373
0.413371
0.446018
0.479297
0.513211
0.547766
0.582971
0.618826
0.655309
0.692381
0.730002
0.768124
0.806695
0.845662
0.884979
0.924607
0.964513
1.00467
1.04507
1.08571
1.12658
1.16768
1.20902
1.25059
1.29241
1.33446
1.37673
1.4192
1.46186
1.50466
1.54758
1.59058
1.63362
1.67666
1.71966
1.76259
1.80543
1.84813
1.89066
1.933
1.97512
2.01699
2.05858
2.09988
2.14087
2.18152
2.22181
2.26173
2.30123
2.34031
2.37892
2.41705
2.45466
2.49172
2.52819
2.56403
2.59921
2.63369
2.66743
2.7004
2.73255
2.76385
2.79426
2.82373
2.85224
2.87974
2.9062
2.93158
2.95587
2.97902
3.00101
3.02181
3.04141
3.0598
3.07695
3.09286
3.10753
3.12095
3.13312
3.14405
3.15374
3.1622
3.16944
3.17548
3.18033
3.18401
3.18654
3.18782
3.18803
3.18715
3.18521
3.18225
3.1783
3.1734
3.16759
3.16088
3.1533
3.14487
3.13562
3.12555
3.11469
3.10303
3.0906
3.0774
3.06344
3.04874
3.03329
3.01711
3.00019
2.98256
2.96423
2.94522
2.92556
2.90526
2.88434
2.86281
2.84071
2.81805
2.79484
2.77113
2.74693
2.72232
2.69733
2.67204
2.64653
2.62089
2.5952
2.56958
2.54412
2.51889
2.49389
2.46814
2.43888
0.000161942
0.00384649
0.0179575
0.0310016
0.0381292
0.0417132
0.0432264
0.0434093
0.0427496
0.0413895
0.0396055
0.0375792
0.0354537
0.0333542
0.0313686
0.0295655
0.0279774
0.026624
0.0254983
0.0246017
0.0239159
0.0234769
0.0233655
0.0237052
0.0249411
0.0275848
0.0327105
0.0424535
0.0573029
0.0751153
0.0942377
0.112594
0.128393
0.140521
0.149309
0.15635
0.163873
0.173674
0.186763
0.203393
0.223405
0.246395
0.271832
0.299151
0.327809
0.357399
0.387684
0.418583
0.450087
0.482225
0.515035
0.548562
0.582847
0.617919
0.653785
0.690444
0.727882
0.766072
0.804976
0.844552
0.884754
0.925538
0.966863
1.00869
1.051
1.09377
1.13697
1.1806
1.22464
1.26911
1.31397
1.35923
1.40487
1.45086
1.49717
1.54376
1.5906
1.63763
1.6848
1.73206
1.77935
1.82663
1.87385
1.92097
1.96796
2.01477
2.06137
2.10773
2.15381
2.19958
2.24502
2.29011
2.33483
2.37915
2.42304
2.46648
2.50944
2.55188
2.59379
2.63512
2.67583
2.71589
2.75526
2.7939
2.83175
2.8688
2.90498
2.94026
2.97459
3.00794
3.04025
3.0715
3.10162
3.1306
3.15839
3.18496
3.21028
3.23431
3.25703
3.27841
3.29845
3.31711
3.33441
3.35031
3.36484
3.37798
3.38974
3.40012
3.40913
3.4168
3.42312
3.42812
3.43183
3.43424
3.4353
3.43519
3.43384
3.43131
3.42764
3.42287
3.41704
3.41019
3.40235
3.39356
3.38383
3.37319
3.36166
3.34926
3.33601
3.32192
3.30699
3.29124
3.2747
3.25736
3.23923
3.22032
3.20066
3.18026
3.15915
3.13735
3.11487
3.09174
3.06797
3.04359
3.01862
2.99308
2.967
2.94043
2.91341
2.88602
2.85833
2.83041
2.80237
2.77431
2.74633
2.71855
2.69104
2.66384
2.63603
2.6051
0.000366108
0.00793926
0.0270209
0.0389898
0.0448718
0.0475673
0.048368
0.0479333
0.0466201
0.0446925
0.0423853
0.0398974
0.0373932
0.0350136
0.0328564
0.0309949
0.0294655
0.0282906
0.0274305
0.0269721
0.0268159
0.0271829
0.0284044
0.0311556
0.0363144
0.0446542
0.0563842
0.0706465
0.0863564
0.102512
0.117829
0.13119
0.142148
0.151047
0.159044
0.167778
0.178685
0.192596
0.209712
0.22982
0.252511
0.277296
0.303689
0.331256
0.359652
0.388679
0.418261
0.448413
0.479185
0.510646
0.542865
0.57591
0.609832
0.64467
0.680452
0.717194
0.754894
0.793541
0.833109
0.873568
0.91488
0.957008
0.999914
1.04356
1.08792
1.13297
1.17868
1.22503
1.272
1.31959
1.36776
1.4165
1.46578
1.51555
1.56578
1.61641
1.66739
1.71864
1.7701
1.82169
1.87335
1.92502
1.97663
2.02815
2.07952
2.13071
2.18166
2.23235
2.28271
2.33273
2.38238
2.43163
2.48047
2.52887
2.57679
2.6242
2.67108
2.71739
2.76309
2.80816
2.85254
2.89621
2.93911
2.98119
3.02242
3.06274
3.10211
3.14049
3.17782
3.21407
3.24917
3.28309
3.31579
3.34721
3.37733
3.40611
3.43351
3.45949
3.48403
3.5071
3.52868
3.54876
3.56731
3.58435
3.59986
3.61384
3.62631
3.63725
3.6467
3.65465
3.66113
3.66616
3.66976
3.67193
3.67267
3.67209
3.67015
3.66691
3.66241
3.65671
3.64985
3.64186
3.63279
3.62268
3.61155
3.59944
3.58637
3.57236
3.55745
3.54163
3.52492
3.50735
3.48892
3.46966
3.44956
3.42865
3.40695
3.38449
3.36129
3.33738
3.31276
3.28747
3.26151
3.23491
3.20769
3.17988
3.1515
3.12262
3.09328
3.06357
3.03354
3.00329
2.97291
2.94251
2.91221
2.88212
2.85233
2.8229
2.79297
2.76035
0.000715467
0.0141413
0.0353826
0.046219
0.0513045
0.0533978
0.0536684
0.0526959
0.0508526
0.0484353
0.0456946
0.0428588
0.040119
0.0376359
0.0355217
0.0338662
0.0327148
0.0321665
0.0321068
0.0327376
0.0343237
0.0372787
0.0419719
0.0486966
0.0575779
0.0684635
0.0809498
0.0943278
0.107756
0.120486
0.131982
0.142107
0.151201
0.160153
0.170105
0.182069
0.196641
0.213959
0.23382
0.255857
0.279662
0.304846
0.331068
0.358063
0.385654
0.413775
0.442434
0.471695
0.501638
0.532357
0.563936
0.596445
0.629952
0.664511
0.700163
0.736938
0.774849
0.813898
0.854076
0.895363
0.937735
0.981163
1.02561
1.07106
1.11746
1.16479
1.21303
1.26213
1.31209
1.36287
1.41443
1.46674
1.51976
1.57344
1.6277
1.68248
1.7377
1.79328
1.84914
1.90518
1.96131
2.01746
2.07357
2.12956
2.1854
2.24103
2.2964
2.35146
2.40616
2.46046
2.51434
2.56778
2.62076
2.67323
2.72518
2.77656
2.82734
2.87748
2.92695
2.97571
3.02372
3.07093
3.1173
3.16276
3.20728
3.25079
3.29326
3.33464
3.37486
3.41389
3.45166
3.48813
3.52325
3.55698
3.58928
3.62011
3.64943
3.67721
3.7034
3.72799
3.75095
3.77226
3.79191
3.80989
3.82621
3.84086
3.85384
3.86518
3.87486
3.88293
3.88938
3.89426
3.89759
3.89936
3.89962
3.89841
3.89573
3.89163
3.88617
3.8794
3.87136
3.86212
3.8517
3.84016
3.82753
3.81384
3.79914
3.78345
3.76679
3.74919
3.73065
3.71121
3.69086
3.66964
3.64755
3.62462
3.60089
3.57639
3.55113
3.52514
3.49844
3.47104
3.44295
3.4142
3.38482
3.35481
3.32423
3.29312
3.26156
3.2296
3.19733
3.16483
3.13219
3.09953
3.06696
3.0346
3.00254
2.97088
2.93881
2.90438
0.0011916
0.0212109
0.0430272
0.053311
0.0579259
0.0595472
0.0594067
0.0580043
0.0557505
0.0529813
0.0499876
0.0470331
0.0443412
0.0421042
0.0404518
0.0395804
0.0393778
0.0399514
0.0414593
0.0440782
0.0479967
0.0533427
0.0602004
0.0685227
0.0781266
0.0887092
0.0998248
0.110978
0.121762
0.131966
0.1416
0.150999
0.160812
0.171799
0.184598
0.199588
0.216831
0.23616
0.257282
0.27988
0.303656
0.328357
0.353781
0.379797
0.406338
0.433411
0.46107
0.489402
0.518508
0.548484
0.579422
0.61141
0.644522
0.678827
0.714376
0.751213
0.789366
0.828852
0.869677
0.911839
0.955327
1.00012
1.0462
1.09352
1.14206
1.19179
1.24268
1.29468
1.34775
1.40187
1.45698
1.51303
1.56996
1.62768
1.68612
1.74518
1.80477
1.8648
1.92515
1.98572
2.0464
2.1071
2.16773
2.22824
2.28857
2.34865
2.40842
2.46784
2.52683
2.58538
2.64345
2.70102
2.75806
2.81454
2.87042
2.92567
2.98024
3.0341
3.08722
3.13954
3.19103
3.24164
3.29132
3.33999
3.38762
3.43415
3.47952
3.52368
3.56659
3.60818
3.64839
3.68718
3.7245
3.76029
3.79452
3.82715
3.85814
3.88745
3.91505
3.9409
3.96498
3.98727
4.00776
4.02644
4.04332
4.05839
4.07165
4.08311
4.0928
4.10073
4.10694
4.11144
4.11426
4.11544
4.11501
4.11298
4.10935
4.10421
4.09762
4.08962
4.08027
4.06962
4.05772
4.04462
4.03036
4.015
3.99856
3.98108
3.9626
3.94314
3.92272
3.90136
3.87907
3.85586
3.83177
3.80683
3.78109
3.75456
3.72729
3.69929
3.67057
3.64114
3.61102
3.58022
3.54876
3.51667
3.48399
3.45078
3.41711
3.38305
3.34865
3.31402
3.27923
3.2444
3.20964
3.17507
3.14081
3.10696
3.07278
3.03652
0.00175614
0.0277724
0.05026
0.0604324
0.0648138
0.0661486
0.0656978
0.0639699
0.0614462
0.0585226
0.0555393
0.0527889
0.050518
0.0489718
0.0483178
0.0483233
0.0493088
0.0512893
0.0543059
0.0584143
0.063656
0.0700105
0.0773885
0.0856202
0.0944934
0.103777
0.113237
0.12271
0.132126
0.141573
0.151343
0.161875
0.173627
0.186965
0.202085
0.219
0.237575
0.257601
0.278841
0.301084
0.324146
0.347893
0.372227
0.397108
0.422533
0.448556
0.475254
0.502723
0.531069
0.560397
0.590807
0.622393
0.655243
0.689436
0.725037
0.762098
0.80066
0.840756
0.882409
0.925633
0.970427
1.01678
1.06469
1.11412
1.16505
1.21743
1.27124
1.32642
1.38291
1.44066
1.4996
1.55966
1.62074
1.68275
1.74554
1.80901
1.87306
1.93757
2.00243
2.06752
2.13271
2.19791
2.26302
2.32797
2.3927
2.45713
2.52118
2.58481
2.64795
2.71058
2.77266
2.83417
2.89509
2.95537
3.01498
3.07388
3.13201
3.18935
3.24584
3.30147
3.35616
3.40988
3.46257
3.51416
3.56458
3.6138
3.66174
3.70836
3.7536
3.79741
3.83971
3.88046
3.9196
3.95709
3.99288
4.02694
4.05923
4.0897
4.11833
4.14508
4.16992
4.19284
4.21383
4.23287
4.24998
4.26513
4.27835
4.28964
4.29902
4.30651
4.31216
4.316
4.31807
4.31838
4.31703
4.31392
4.30913
4.30274
4.29482
4.2854
4.27456
4.26234
4.2488
4.234
4.21799
4.20082
4.18253
4.16317
4.14278
4.12139
4.09903
4.07571
4.05146
4.02626
4.00017
3.97323
3.94551
3.91702
3.8878
3.85785
3.8272
3.79586
3.76382
3.7311
3.69769
3.66364
3.62901
3.59386
3.55824
3.52222
3.48586
3.44925
3.41246
3.3756
3.33877
3.30212
3.26575
3.2298
3.19359
3.1556
0.00256131
0.0337077
0.0575836
0.0678339
0.0720425
0.0731529
0.0724302
0.0704411
0.0677675
0.0648858
0.062182
0.059941
0.0584262
0.0578094
0.0578665
0.0589524
0.0609947
0.0639541
0.0678286
0.0725966
0.0782086
0.0845846
0.0916174
0.0991892
0.107202
0.115572
0.124256
0.133273
0.142738
0.152858
0.16389
0.176088
0.189631
0.204597
0.220964
0.238634
0.257457
0.277277
0.297948
0.319354
0.341403
0.364048
0.387265
0.411072
0.435508
0.460651
0.486592
0.513435
0.541283
0.570239
0.600409
0.631895
0.664791
0.699188
0.735161
0.77278
0.812103
0.853181
0.896052
0.940744
0.987273
1.03564
1.08584
1.13785
1.19164
1.24718
1.30441
1.36326
1.42366
1.4855
1.54869
1.61312
1.67865
1.74514
1.81243
1.88037
1.94883
2.01771
2.08691
2.15631
2.2258
2.29526
2.36462
2.43378
2.50267
2.57118
2.63918
2.70668
2.77363
2.84
2.90574
2.97083
3.03524
3.09893
3.16187
3.22399
3.28526
3.34563
3.40507
3.46353
3.52096
3.57731
3.63253
3.68653
3.73927
3.79066
3.84067
3.88923
3.93629
3.98178
4.02565
4.06783
4.10827
4.14693
4.18376
4.21873
4.2518
4.28293
4.31209
4.33924
4.36437
4.38746
4.40848
4.42745
4.44435
4.45919
4.47197
4.4827
4.4914
4.4981
4.50284
4.50568
4.50665
4.50585
4.50325
4.49878
4.49258
4.48471
4.47523
4.46419
4.45166
4.43769
4.42235
4.40569
4.38778
4.36867
4.34842
4.32708
4.30469
4.2813
4.25694
4.23164
4.20542
4.17824
4.15016
4.12128
4.09164
4.06126
4.03018
3.99839
3.96593
3.9328
3.89899
3.86449
3.8293
3.79349
3.7571
3.72019
3.68283
3.64505
3.60694
3.56854
3.52995
3.49123
3.45252
3.41395
3.37564
3.33774
3.29962
3.26008
0.00342394
0.0398187
0.0647698
0.0751965
0.0793109
0.0802649
0.0792907
0.0770137
0.0741926
0.0714773
0.0692882
0.0678407
0.0671978
0.0671649
0.0680761
0.0699232
0.0726133
0.076082
0.0802924
0.0851977
0.0907547
0.0969091
0.103625
0.110868
0.118624
0.126905
0.135768
0.145308
0.155651
0.166932
0.179259
0.192707
0.207286
0.222962
0.23966
0.257286
0.275741
0.294943
0.314821
0.335339
0.356476
0.378241
0.400656
0.423776
0.447668
0.472393
0.498054
0.524755
0.552605
0.58172
0.61221
0.644183
0.677746
0.712997
0.750031
0.788927
0.829757
0.872582
0.917457
0.964421
1.0135
1.06469
1.11799
1.17337
1.2308
1.29022
1.35158
1.41478
1.47969
1.54617
1.61405
1.68316
1.7533
1.82432
1.89604
1.96828
2.04087
2.11365
2.18665
2.25982
2.33309
2.40631
2.47937
2.55221
2.62473
2.69676
2.76818
2.83906
2.90929
2.97885
3.04767
3.11574
3.18301
3.24947
3.31506
3.37974
3.44346
3.50617
3.56784
3.62843
3.68788
3.74616
3.80319
3.85889
3.91321
3.96606
4.01741
4.06719
4.11534
4.1618
4.20652
4.24942
4.29046
4.32959
4.36676
4.40196
4.43514
4.46627
4.49532
4.52226
4.54707
4.56973
4.59022
4.60856
4.62473
4.63875
4.65061
4.66032
4.6679
4.67337
4.6768
4.67825
4.6778
4.67555
4.67129
4.66518
4.65729
4.64766
4.63636
4.62345
4.60899
4.59306
4.5757
4.557
4.53701
4.5158
4.49344
4.46997
4.44546
4.41996
4.39351
4.36616
4.33792
4.30878
4.2788
4.24806
4.2166
4.18444
4.1516
4.11811
4.08397
4.0492
4.01381
3.97774
3.94098
3.90362
3.86571
3.8273
3.78843
3.74915
3.70952
3.6696
3.62944
3.58911
3.54875
3.5085
3.46846
3.42884
3.38901
3.34816
0.00434976
0.0459412
0.0719418
0.082499
0.0864988
0.0872394
0.0858829
0.0833292
0.080603
0.0783273
0.0768239
0.0761367
0.0760064
0.0766462
0.0781907
0.080527
0.0835924
0.0873215
0.0916966
0.0966843
0.102285
0.108484
0.115298
0.122736
0.130847
0.139674
0.149284
0.159732
0.171077
0.183348
0.196569
0.210717
0.225747
0.241612
0.258248
0.275611
0.293655
0.31237
0.331744
0.351799
0.37255
0.394056
0.41639
0.439664
0.463852
0.488993
0.515293
0.542838
0.571737
0.602114
0.634079
0.667746
0.703224
0.740625
0.780046
0.821574
0.86528
0.911218
0.95943
1.00996
1.06283
1.11804
1.17551
1.23522
1.29711
1.36114
1.42722
1.49525
1.5651
1.63654
1.70934
1.78317
1.85775
1.93299
2.00878
2.08493
2.16118
2.23741
2.31378
2.39025
2.46662
2.54275
2.61863
2.69433
2.76964
2.8444
2.91856
2.992
3.06465
3.13645
3.20737
3.27739
3.34649
3.41464
3.4818
3.54793
3.61297
3.6769
3.73968
3.80128
3.86165
3.92075
3.9785
4.03483
4.08964
4.14289
4.1945
4.24445
4.29265
4.33906
4.38361
4.42623
4.46687
4.50548
4.54204
4.57653
4.60891
4.63916
4.66724
4.69313
4.7168
4.73825
4.75747
4.77447
4.78924
4.80178
4.8121
4.8202
4.82608
4.82981
4.83144
4.83112
4.82896
4.8247
4.81848
4.81039
4.80047
4.78878
4.77539
4.76035
4.74374
4.72561
4.70605
4.68513
4.66291
4.63946
4.61486
4.58917
4.56245
4.53477
4.50618
4.47671
4.44643
4.41538
4.3836
4.3511
4.31793
4.28409
4.24963