/*--------------------------------*- C++ -*----------------------------------*\
  =========                 |
  \\      /  F ield         | OpenFOAM: The Open Source CFD Toolbox
   \\    /   O peration     | Website:  https://openfoam.org
    \\  /    A nd           | Version:  13
     \\/     M anipulation  |
\*---------------------------------------------------------------------------*/
FoamFile
{
    format      ascii;
    class       volScalarField;
    location    "1800";
    object      nut;
}
// * * * * * * * * * * * * * * * * * * * * * * * * * * * * * * * * * * * * * //

dimensions      [0 2 -1 0 0 0 0];

internalField   nonuniform List<scalar> 
12225
(
6.70254e-06
1.35754e-05
1.6764e-05
1.86678e-05
1.87847e-05
1.89761e-05
2.04392e-05
1.72918e-05
1.69196e-05
1.46679e-05
2.87071e-05
3.56008e-05
3.50674e-05
3.47811e-05
3.53756e-05
2.75447e-05
2.02519e-05
1.98282e-05
3.80369e-08
4.52793e-08
2.8748e-07
1.04108e-06
3.04986e-06
7.85854e-06
1.79544e-05
5.87057e-05
1.56193e-05
1.01046e-05
1.42336e-05
1.93606e-05
2.51094e-05
2.78628e-05
2.89397e-05
2.99453e-05
3.16748e-05
3.19875e-05
5.31594e-07
2.13214e-07
3.42779e-07
7.00574e-07
9.01335e-07
1.30633e-06
1.8303e-06
2.95084e-06
3.77392e-06
3.93803e-06
5.14157e-06
6.66589e-06
7.82232e-06
8.75922e-06
9.40354e-06
1.02196e-05
1.06445e-05
1.09826e-05
3.94629e-06
2.06109e-06
3.52191e-06
4.42521e-06
4.16027e-06
3.85853e-06
6.45613e-06
1.16976e-05
1.10242e-05
1.03895e-05
1.10082e-05
1.04217e-05
9.39299e-06
8.55951e-06
6.98579e-06
5.81981e-06
5.40251e-06
5.02303e-06
2.34655e-05
9.8692e-06
7.29277e-06
6.29068e-06
1.00703e-05
1.28645e-05
2.22203e-05
3.82987e-05
6.32752e-05
5.58502e-05
6.25797e-05
5.90431e-05
5.04805e-05
4.32963e-05
3.55677e-05
2.65714e-05
2.65056e-05
2.57213e-05
8.80485e-05
0.435507
1.99204e-05
1.75229e-05
2.36389e-05
3.91024e-05
5.89244e-05
0.000107049
0.000103051
0.00013035
0.000143581
0.000136112
0.000123419
0.00011404
9.18544e-05
9.37648e-05
7.9517e-05
7.92584e-05
0.00660883
7.9588e-05
0.000221737
6.88913e-05
7.33776e-05
0.000100303
0.000169171
0.000155675
0.000177467
0.000228888
0.000270345
0.000274762
0.000267973
0.000227846
0.000207879
0.000176513
0.000181985
0.000166339
0.00159845
0.00109492
0.000497959
0.00026826
0.000186076
0.000215506
0.000309601
0.000285215
0.000325609
0.000381852
0.000409266
0.000404939
0.000387111
0.000359089
0.000335412
0.000312415
0.000296975
0.000299088
0.000861659
0.000853681
0.000696427
0.000652951
0.000446142
0.000429536
0.000481394
0.000568331
0.000516302
0.000563206
0.00058225
0.000575051
0.000560269
0.000537175
0.000520172
0.000499404
0.000485943
0.000477971
0.000852652
0.000848668
0.000854719
0.000814178
0.000736728
0.000683906
0.000681741
0.000730477
0.000691124
0.000715417
0.000722864
0.000715443
0.000704835
0.000689314
0.000677778
0.000663191
0.000654004
0.000641384
0.000850604
0.000853124
0.000854063
0.000852703
0.000842765
0.000811957
0.000800834
0.000809991
0.000794515
0.000800586
0.000802124
0.000797636
0.000791368
0.00078304
0.000776207
0.000767774
0.000762009
0.0007529
0.000850806
0.000851289
0.000851954
0.000850856
0.000851288
0.000844919
0.000841425
0.000839865
0.000838783
0.000833379
0.000832747
0.000830502
0.00082718
0.000822843
0.000818962
0.000814472
0.000811107
0.000806005
0.000851302
0.000850757
0.000850388
0.000849625
0.000849236
0.000848171
0.000847103
0.000846152
0.000845164
0.000844025
0.00084272
0.000841387
0.000839851
0.000838028
0.000836404
0.000834276
0.000832843
0.000830511
0.000851491
0.000850677
0.000849946
0.000849182
0.000848519
0.000847791
0.00084714
0.000846471
0.00084583
0.000845175
0.000844509
0.000843784
0.000843123
0.000842316
0.000841639
0.000840771
0.000840073
0.000839175
0.000851537
0.00085067
0.000849872
0.000849086
0.000848372
0.000847654
0.000847007
0.000846356
0.000845763
0.000845165
0.00084462
0.000844056
0.000843548
0.00084302
0.000842534
0.000842036
0.000841561
0.00084108
0.00085154
0.000850672
0.000849857
0.000849073
0.000848339
0.000847629
0.000846964
0.00084632
0.000845716
0.000845129
0.000844578
0.000844042
0.000843537
0.000843047
0.000842582
0.000842132
0.000841702
0.000841284
0.000851538
0.000850673
0.000849852
0.00084907
0.000848328
0.00084762
0.000846948
0.000846305
0.000845693
0.000845108
0.00084455
0.000844016
0.000843505
0.000843016
0.000842549
0.000842101
0.000841672
0.000841261
0.000851539
0.000850677
0.000849858
0.000849077
0.000848335
0.000847627
0.000846954
0.000846311
0.000845697
0.000845111
0.000844551
0.000844016
0.000843503
0.000843013
0.000842543
0.000842094
0.000841664
0.000841252
0.000851537
0.000850673
0.000849851
0.000849069
0.000848324
0.000847614
0.000846939
0.000846294
0.000845678
0.00084509
0.000844529
0.000843991
0.000843477
0.000842985
0.000842514
0.000842063
0.000841632
0.000841218
0.000851537
0.000850673
0.000849851
0.000849069
0.000848324
0.000847615
0.000846939
0.000846295
0.00084568
0.000845092
0.00084453
0.000843994
0.000843479
0.000842987
0.000842516
0.000842065
0.000841633
0.00084122
0.000851537
0.000850676
0.000849854
0.000849075
0.00084833
0.000847625
0.000846949
0.000846308
0.000845692
0.000845108
0.000844545
0.000844009
0.000843492
0.000843
0.000842523
0.00084207
0.000841632
0.000841214
0.000851536
0.000850683
0.000849856
0.000849085
0.000848336
0.000847637
0.000846955
0.000846319
0.00084569
0.000845103
0.000844514
0.00084396
0.000843393
0.000842863
0.000842313
0.000841806
0.00084128
0.000840802
0.000851549
0.000850689
0.000849847
0.000849088
0.00084828
0.000847557
0.000846776
0.000846074
0.000845267
0.000844529
0.000843669
0.000842826
0.000841836
0.000840902
0.000839792
0.000838815
0.000837653
0.00083668
0.000851678
0.000850607
0.000849824
0.00084877
0.000847362
0.000845952
0.000844157
0.000842575
0.000840313
0.000838271
0.000835544
0.000832837
0.000829611
0.000826368
0.000822776
0.000819415
0.000815567
0.000812425
0.000852249
0.000850146
0.000849115
0.000843932
0.000838059
0.000831063
0.000822907
0.000816749
0.00080786
0.000799865
0.000790062
0.00078106
0.000770331
0.000760969
0.000750254
0.000741541
0.00073167
0.000724123
0.000854419
0.000842172
0.000828274
0.000805011
0.000779362
0.000756189
0.00072998
0.000707321
0.000682793
0.000662318
0.000639992
0.000621462
0.00060115
0.000584849
0.000567051
0.000553495
0.00053852
0.000527717
0.000872776
0.00077566
0.000702937
0.000630379
0.000568788
0.000520824
0.000476117
0.00044244
0.000411247
0.000388311
0.000365462
0.0003483
0.00033035
0.000316857
0.000302454
0.000291932
0.000280496
0.000272518
0.000756974
0.000481554
0.000343577
0.000272286
0.000228156
0.000198766
0.000175916
0.00016035
0.000147626
0.00013937
0.000131292
0.000125377
0.000119487
0.000114937
0.000110483
0.000107003
0.000103698
0.000101135
0.000203749
0.00010107
7.43613e-05
6.22498e-05
5.69214e-05
5.42753e-05
5.34318e-05
5.2979e-05
5.33731e-05
5.36292e-05
5.45271e-05
5.52151e-05
5.64716e-05
5.74681e-05
5.90685e-05
5.91541e-05
5.95407e-05
5.98556e-05
1.35892e-05
1.73428e-05
1.98965e-05
2.13069e-05
2.20589e-05
2.22575e-05
2.22522e-05
2.20273e-05
2.1716e-05
2.13755e-05
2.10347e-05
2.07071e-05
2.0403e-05
2.01269e-05
1.98773e-05
1.96603e-05
1.94706e-05
1.93063e-05
1.7451e-12
1.95254e-10
9.81389e-10
3.79373e-09
1.236e-08
3.63786e-08
9.45755e-08
1.87281e-07
3.01463e-07
4.23798e-07
5.31429e-07
6.15439e-07
6.69631e-07
6.88022e-07
6.80603e-07
6.51596e-07
5.95784e-07
5.14355e-07
4.30484e-07
3.6267e-07
3.00495e-07
2.42407e-07
1.87063e-07
1.3645e-07
9.07602e-08
5.46995e-08
2.98451e-08
1.52936e-08
7.75208e-09
4.12758e-09
2.40101e-09
1.62544e-09
1.48098e-09
2.37798e-09
3.49208e-09
2.6155e-08
6.25481e-08
1.70983e-07
3.06609e-07
3.99534e-07
3.88423e-07
3.34904e-07
2.63034e-07
2.27533e-07
2.36231e-07
2.94638e-07
3.72699e-07
6.54171e-07
1.21945e-06
3.11661e-06
1.01501e-05
2.43364e-05
4.04777e-05
5.06872e-05
5.46456e-05
4.88035e-05
4.46126e-05
4.02779e-05
3.29282e-05
3.67499e-05
3.56926e-05
3.04527e-05
3.31449e-05
3.14508e-05
3.15824e-05
3.27679e-05
3.32546e-05
3.40096e-05
3.44827e-05
3.51165e-05
3.56483e-05
3.62194e-05
3.67628e-05
3.73089e-05
3.78475e-05
3.83821e-05
3.89135e-05
3.94407e-05
3.99657e-05
4.0487e-05
4.10066e-05
4.1523e-05
4.20379e-05
4.255e-05
4.30605e-05
4.35688e-05
4.4075e-05
4.45795e-05
4.50818e-05
4.55829e-05
4.60824e-05
4.65792e-05
4.70736e-05
4.75645e-05
4.80529e-05
4.85371e-05
4.90184e-05
4.94954e-05
4.99699e-05
5.04415e-05
5.09136e-05
5.13891e-05
5.18748e-05
5.23671e-05
5.28591e-05
5.33579e-05
5.38609e-05
5.43722e-05
5.48895e-05
5.54162e-05
5.59503e-05
5.64949e-05
5.70486e-05
5.76139e-05
5.81901e-05
5.87792e-05
5.93812e-05
5.99977e-05
6.06288e-05
6.1276e-05
6.19403e-05
6.26228e-05
6.33253e-05
6.40478e-05
6.47933e-05
6.55611e-05
6.63558e-05
6.71782e-05
6.80345e-05
6.89165e-05
6.98361e-05
7.07451e-05
7.17585e-05
7.2759e-05
7.38317e-05
7.4948e-05
7.61292e-05
7.73641e-05
7.757e-05
7.73353e-05
7.70868e-05
7.68377e-05
7.65724e-05
7.63053e-05
7.60281e-05
7.5745e-05
7.54552e-05
7.51588e-05
7.48563e-05
7.45475e-05
7.42327e-05
7.39116e-05
7.35851e-05
7.32499e-05
7.29163e-05
7.25632e-05
7.22246e-05
7.18586e-05
7.15165e-05
7.11397e-05
7.07965e-05
7.0411e-05
7.00554e-05
6.96748e-05
6.93006e-05
6.89196e-05
6.85354e-05
6.81484e-05
6.77577e-05
6.7365e-05
6.69693e-05
6.65713e-05
6.617e-05
6.57639e-05
6.53488e-05
6.49177e-05
6.44591e-05
6.39485e-05
6.33149e-05
6.17055e-05
7.92038e-12
1.27278e-09
1.64428e-08
8.44852e-08
3.57299e-07
1.19557e-06
2.7545e-06
4.98819e-06
7.6637e-06
1.07148e-05
1.38142e-05
1.66904e-05
1.91745e-05
2.08792e-05
2.21637e-05
2.25224e-05
2.21728e-05
2.12926e-05
1.91509e-05
1.62384e-05
1.25306e-05
9.20587e-06
6.46556e-06
4.35321e-06
2.74462e-06
1.70361e-06
1.03752e-06
6.45297e-07
4.00436e-07
2.57746e-07
1.80375e-07
1.418e-07
1.39311e-07
1.87159e-07
1.3057e-07
1.66746e-06
3.88676e-06
1.0007e-05
1.64802e-05
2.05291e-05
2.06687e-05
1.90458e-05
1.6264e-05
1.44259e-05
1.47734e-05
1.58163e-05
1.64443e-05
2.05832e-05
2.93435e-05
4.01152e-05
5.15338e-05
6.32388e-05
7.35813e-05
8.28143e-05
9.08123e-05
9.90499e-05
0.000108966
0.000120793
0.000129652
0.00014708
0.000160393
0.000169946
0.000184117
0.000195978
0.000208244
0.00022042
0.000231669
0.000242374
0.000252875
0.000262872
0.000272637
0.000282066
0.000291264
0.000300228
0.000308998
0.000317589
0.000326025
0.000334314
0.000342476
0.000350513
0.00035844
0.000366257
0.000373975
0.000381594
0.000389122
0.000396559
0.000403912
0.000411185
0.00041838
0.000425501
0.000432556
0.000439538
0.000446455
0.000453298
0.000460067
0.000466748
0.000473329
0.00047978
0.00048607
0.000492137
0.000497906
0.000503264
0.000508082
0.000512636
0.000517105
0.00052145
0.000525671
0.00052977
0.000533736
0.00053757
0.000541264
0.000544816
0.000548219
0.000551472
0.000554568
0.000557506
0.000560281
0.000562892
0.000565334
0.000567606
0.000569706
0.000571635
0.000573394
0.000574983
0.000576404
0.000577656
0.000578739
0.000579652
0.000580393
0.000580949
0.000581346
0.000581581
0.000581714
0.00058162
0.000581357
0.000581012
0.000580611
0.000580249
0.000580096
0.000579981
0.000579502
0.000579181
0.000578635
0.000578001
0.000577279
0.000576473
0.000575586
0.000574618
0.000573572
0.000572446
0.000571242
0.000569956
0.00056859
0.000567128
0.000565571
0.000564043
0.000562192
0.000560555
0.000558502
0.000556775
0.000554586
0.000552638
0.000550381
0.000548153
0.000545821
0.000543403
0.000540901
0.000538307
0.000535626
0.000532858
0.00053
0.000527051
0.000524001
0.000520837
0.000517506
0.000513926
0.000509969
0.000505361
0.000499148
0.000482565
1.6297e-11
2.77001e-09
5.18378e-08
3.1241e-07
1.14651e-06
2.75775e-06
5.94306e-06
1.03475e-05
1.58805e-05
2.22408e-05
2.90875e-05
3.58356e-05
4.19567e-05
4.70618e-05
5.12076e-05
5.38652e-05
5.53408e-05
5.55867e-05
5.43829e-05
5.16083e-05
4.71608e-05
4.14381e-05
3.42555e-05
2.70112e-05
2.02434e-05
1.44883e-05
9.78699e-06
6.51841e-06
4.09525e-06
2.68102e-06
1.84876e-06
1.40588e-06
1.18969e-06
1.36786e-06
1.84388e-06
9.12821e-06
2.17737e-05
4.1264e-05
5.53705e-05
6.0615e-05
5.55844e-05
4.18897e-05
3.57588e-05
3.77815e-05
4.49335e-05
5.24408e-05
6.28805e-05
7.58669e-05
8.84711e-05
0.000102423
0.000120088
0.000139243
0.000160773
0.000184034
0.000210456
0.000239564
0.000269346
0.000299882
0.00032845
0.000360307
0.000388877
0.000415548
0.000442691
0.000466619
0.000491023
0.000514328
0.000536434
0.000557635
0.000578187
0.000598009
0.000617327
0.000636123
0.000654507
0.000672508
0.000690178
0.000707547
0.000724643
0.000741487
0.000758096
0.000774483
0.00079066
0.000806634
0.000822413
0.000838001
0.000853405
0.000868628
0.000883676
0.000898548
0.000913248
0.000927778
0.000942138
0.000956322
0.000970323
0.000984128
0.000997722
0.00101108
0.00102419
0.00103699
0.00104947
0.00106157
0.00107326
0.00108452
0.00109541
0.00110606
0.00111649
0.00112666
0.00113656
0.0011462
0.00115555
0.00116461
0.00117337
0.00118181
0.00118993
0.00119772
0.00120516
0.00121226
0.001219
0.00122538
0.00123139
0.00123703
0.00124229
0.00124718
0.0012517
0.00125585
0.00125963
0.00126304
0.00126608
0.00126875
0.00127106
0.001273
0.00127461
0.00127589
0.00127689
0.00127754
0.00127788
0.00127795
0.00127781
0.00127759
0.00127724
0.00127667
0.0012758
0.00127476
0.00127357
0.00127216
0.00127056
0.00126878
0.00126682
0.00126468
0.00126237
0.00125988
0.00125722
0.00125437
0.00125135
0.00124815
0.00124469
0.0012412
0.00123726
0.00123343
0.00122907
0.00122491
0.00122018
0.0012156
0.00121063
0.00120557
0.00120031
0.00119486
0.00118921
0.00118337
0.00117734
0.00117112
0.00116471
0.00115811
0.0011513
0.00114425
0.00113685
0.00112894
0.00112022
0.00111002
0.00109602
0.00106576
5.72901e-11
9.6815e-09
1.61886e-07
7.13896e-07
2.31679e-06
6.31154e-06
1.27498e-05
2.14742e-05
3.19018e-05
4.29837e-05
5.37616e-05
6.37235e-05
7.23258e-05
7.91531e-05
8.42593e-05
8.76769e-05
8.92742e-05
8.93386e-05
8.79995e-05
8.53062e-05
8.09397e-05
7.566e-05
6.85393e-05
6.00664e-05
5.03213e-05
4.04467e-05
3.10708e-05
2.33052e-05
1.72034e-05
1.24579e-05
9.22238e-06
6.96199e-06
6.04636e-06
7.69766e-06
1.50436e-05
3.40235e-05
5.57565e-05
7.09252e-05
7.28053e-05
6.8793e-05
6.65416e-05
6.78277e-05
7.29035e-05
8.17086e-05
9.38082e-05
0.00010829
0.000121243
0.000143525
0.000164893
0.000193776
0.000225869
0.000261825
0.000300905
0.000342367
0.000385849
0.000430209
0.000474404
0.000517765
0.000559599
0.000601144
0.000640362
0.000677779
0.000713854
0.000748327
0.000781793
0.000813983
0.000845036
0.000875116
0.000904378
0.000932879
0.000960755
0.000988051
0.00101485
0.00104119
0.00106712
0.00109267
0.00111786
0.00114272
0.00116726
0.00119149
0.00121542
0.00123905
0.00126239
0.00128545
0.00130823
0.00133072
0.00135293
0.00137486
0.00139651
0.00141788
0.00143896
0.00145974
0.00148022
0.00150038
0.0015202
0.00153967
0.00155876
0.00157745
0.00159574
0.00161359
0.00163101
0.00164801
0.00166464
0.00168093
0.00169685
0.00171239
0.00172754
0.00174227
0.00175657
0.00177042
0.00178382
0.00179674
0.00180918
0.00182112
0.00183255
0.00184346
0.00185383
0.00186367
0.00187297
0.00188171
0.0018899
0.00189754
0.00190464
0.00191118
0.00191719
0.00192265
0.00192757
0.00193196
0.00193582
0.00193917
0.00194203
0.00194442
0.00194637
0.00194788
0.00194896
0.00194954
0.00194981
0.00194976
0.00194945
0.00194876
0.00194771
0.00194637
0.00194473
0.0019428
0.00194058
0.00193809
0.00193533
0.0019323
0.001929
0.00192543
0.0019216
0.00191749
0.0019131
0.00190844
0.00190343
0.00189824
0.00189259
0.00188684
0.00188059
0.00187429
0.00186748
0.00186058
0.0018533
0.00184578
0.00183798
0.00182989
0.00182151
0.00181283
0.00180388
0.00179464
0.00178514
0.00177537
0.00176531
0.00175491
0.00174404
0.0017325
0.0017199
0.00170535
0.00168562
0.00164948
1.90671e-10
2.95021e-08
3.63066e-07
1.70971e-06
5.97043e-06
1.4713e-05
2.76825e-05
4.34619e-05
6.0126e-05
7.60377e-05
9.00317e-05
0.000101405
0.000109865
0.000115964
0.000119467
0.00012103
0.000120976
0.000119556
0.000116951
0.000113297
0.000108318
0.000102583
9.58287e-05
8.77135e-05
7.81021e-05
6.72977e-05
5.57704e-05
4.50128e-05
3.58471e-05
2.85935e-05
2.26384e-05
1.92765e-05
2.03536e-05
2.9568e-05
5.13086e-05
7.15964e-05
8.29202e-05
8.78375e-05
9.00054e-05
9.29522e-05
9.89248e-05
0.000108906
0.0001238
0.000136077
0.000150441
0.000174897
0.000203469
0.000237805
0.00027595
0.000320727
0.000367814
0.000418309
0.000470558
0.00052397
0.000577792
0.000631253
0.000683752
0.00073495
0.00078466
0.000832765
0.000879195
0.000924359
0.000967788
0.0010097
0.00105045
0.00108997
0.0011284
0.00116587
0.0012025
0.00123835
0.00127353
0.0013081
0.00134211
0.00137562
0.00140864
0.00144122
0.00147336
0.00150509
0.00153642
0.00156734
0.00159787
0.00162801
0.00165776
0.00168713
0.0017161
0.00174469
0.00177289
0.0018007
0.00182812
0.00185513
0.00188175
0.00190797
0.00193376
0.00195913
0.00198406
0.00200855
0.00203257
0.00205611
0.00207919
0.00210179
0.00212392
0.00214559
0.0021668
0.00218756
0.00220783
0.0022276
0.00224685
0.00226557
0.00228374
0.00230134
0.00231835
0.00233476
0.00235055
0.00236572
0.00238024
0.00239411
0.00240731
0.00241985
0.00243171
0.00244289
0.00245339
0.00246321
0.00247235
0.00248082
0.00248862
0.00249576
0.00250223
0.00250805
0.00251324
0.0025178
0.00252175
0.00252514
0.00252795
0.00253028
0.0025321
0.00253322
0.00253397
0.00253424
0.00253411
0.00253353
0.00253252
0.00253113
0.00252935
0.0025272
0.0025247
0.00252185
0.00251864
0.0025151
0.00251121
0.00250698
0.00250241
0.00249748
0.0024922
0.00248656
0.00248052
0.00247415
0.00246733
0.00246022
0.00245266
0.00244483
0.00243655
0.00242799
0.00241903
0.00240973
0.00240007
0.00239004
0.00237965
0.00236888
0.00235777
0.00234631
0.00233452
0.00232238
0.00230988
0.00229699
0.00228358
0.00226945
0.0022542
0.00223694
0.00221425
0.0021774
5.88275e-10
7.20211e-08
8.69216e-07
4.42747e-06
1.50394e-05
3.25009e-05
5.40148e-05
7.65485e-05
9.70681e-05
0.00011382
0.000126476
0.000135921
0.00014203
0.00014542
0.000146734
0.000146422
0.000144786
0.000142023
0.000138316
0.000133719
0.000128063
0.000121833
0.000114826
0.000106649
9.731e-05
8.55297e-05
7.00863e-05
5.53431e-05
4.21634e-05
3.30881e-05
3.04511e-05
3.42072e-05
4.88084e-05
7.16745e-05
9.04803e-05
0.000102425
0.000109373
0.000114553
0.000121541
0.000133135
0.000150709
0.000160161
0.000176269
0.000201258
0.00023106
0.000268574
0.000311209
0.000359515
0.000411571
0.000467461
0.00052488
0.000584106
0.000643908
0.000703852
0.000763383
0.000822086
0.000879631
0.000935525
0.000990211
0.00104378
0.00109559
0.00114599
0.00119492
0.00124252
0.00128896
0.00133428
0.00137857
0.00142194
0.00146448
0.00150626
0.00154735
0.0015878
0.00162766
0.00166696
0.00170573
0.00174399
0.00178175
0.00181902
0.00185579
0.00189209
0.00192789
0.00196321
0.00199804
0.00203239
0.00206624
0.00209961
0.00213249
0.00216486
0.00219675
0.00222813
0.00225901
0.00228939
0.00231926
0.0023486
0.00237743
0.00240572
0.00243347
0.00246069
0.00248736
0.00251349
0.0025391
0.00256416
0.00258866
0.00261261
0.00263597
0.00265873
0.00268088
0.0027024
0.00272328
0.00274349
0.00276302
0.00278186
0.00279999
0.0028174
0.00283408
0.00285001
0.0028652
0.00287964
0.00289331
0.00290622
0.00291837
0.00292975
0.00294038
0.00295026
0.00295939
0.00296778
0.00297544
0.00298237
0.00298859
0.00299412
0.00299898
0.0030032
0.00300683
0.00300995
0.0030123
0.00301397
0.00301518
0.00301586
0.00301603
0.0030157
0.00301488
0.00301362
0.00301191
0.00300977
0.00300723
0.00300427
0.00300092
0.00299716
0.00299301
0.00298847
0.00298352
0.00297817
0.00297241
0.00296623
0.0029596
0.00295256
0.00294507
0.00293718
0.00292883
0.00292009
0.00291091
0.00290134
0.00289135
0.00288095
0.00287012
0.00285888
0.00284721
0.00283512
0.00282262
0.00280974
0.00279648
0.00278285
0.00276884
0.00275441
0.00273948
0.00272386
0.00270722
0.00268872
0.00266562
0.00263033
1.8209e-09
1.7631e-07
2.24955e-06
1.2091e-05
3.28499e-05
6.0142e-05
8.73774e-05
0.000110222
0.000128125
0.000141537
0.000151603
0.00015804
0.000161805
0.000163377
0.000163278
0.000161862
0.000159351
0.000155909
0.000151567
0.000146346
0.000140122
0.000133293
0.000125332
0.00011611
9.95119e-05
8.41524e-05
7.0416e-05
5.84458e-05
5.09083e-05
5.16731e-05
6.27565e-05
8.03208e-05
0.000101447
0.000116921
0.000128235
0.000136398
0.000144464
0.000156442
0.000173697
0.000182055
0.000198116
0.000222139
0.000251368
0.000288609
0.000331686
0.000381506
0.000435684
0.000493708
0.00055411
0.000616445
0.000679632
0.000743476
0.000807273
0.00087069
0.000933341
0.000994776
0.00105528
0.00111488
0.00117301
0.00122985
0.00128531
0.00133948
0.00139239
0.00144412
0.00149477
0.0015444
0.00159308
0.0016409
0.00168791
0.00173417
0.00177975
0.00182469
0.00186901
0.00191274
0.0019559
0.00199849
0.00204052
0.00208199
0.0021229
0.00216324
0.00220301
0.00224221
0.00228082
0.00231886
0.00235632
0.0023932
0.00242949
0.0024652
0.00250032
0.00253485
0.0025688
0.00260216
0.00263492
0.0026671
0.00269868
0.00272966
0.00276004
0.0027898
0.00281896
0.00284749
0.00287538
0.00290265
0.00292929
0.00295528
0.00298062
0.00300528
0.00302927
0.00305255
0.00307513
0.00309698
0.0031181
0.00313847
0.0031581
0.00317697
0.00319507
0.00321238
0.00322889
0.00324461
0.00325952
0.00327362
0.00328692
0.00329941
0.0033111
0.00332199
0.00333209
0.00334141
0.00334995
0.00335772
0.00336474
0.00337102
0.0033766
0.00338155
0.00338587
0.00338948
0.00339233
0.00339451
0.00339614
0.00339719
0.00339768
0.00339761
0.00339703
0.00339595
0.00339443
0.00339246
0.00339004
0.00338718
0.00338387
0.00338014
0.00337597
0.00337137
0.00336634
0.00336087
0.00335495
0.00334858
0.00334174
0.00333445
0.00332668
0.00331847
0.00330978
0.00330066
0.00329108
0.00328106
0.00327058
0.00325966
0.00324828
0.00323644
0.00322414
0.0032114
0.00319821
0.00318461
0.00317061
0.00315623
0.00314146
0.00312628
0.00311064
0.00309441
0.00307731
0.00305867
0.00303634
0.00300417
5.39659e-09
4.56104e-07
5.85562e-06
2.62945e-05
5.77242e-05
9.07607e-05
0.000119296
0.000141271
0.000156804
0.000167176
0.000172792
0.000175377
0.000175918
0.000175132
0.000173265
0.000170524
0.000166976
0.000162515
0.000157092
0.000150717
0.00014366
0.000135784
0.000126673
0.000109216
9.25638e-05
7.88914e-05
7.01511e-05
6.92276e-05
7.41779e-05
8.78219e-05
0.00011082
0.000135084
0.000151173
0.000161485
0.000171377
0.000183531
0.000194408
0.000202135
0.000216663
0.000238229
0.000265897
0.00030102
0.000342288
0.000390491
0.000444011
0.000502297
0.000563482
0.000626877
0.000691607
0.000757232
0.000823182
0.000889169
0.000954824
0.00101954
0.00108352
0.00114709
0.00120941
0.00127065
0.0013307
0.00138958
0.00144728
0.00150385
0.00155931
0.00161374
0.00166718
0.00171969
0.00177133
0.00182216
0.00187223
0.00192159
0.00197028
0.00201833
0.00206577
0.00211261
0.00215886
0.0022045
0.00224954
0.00229397
0.00233777
0.00238095
0.00242348
0.00246537
0.0025066
0.00254718
0.0025871
0.00262637
0.00266497
0.00270291
0.0027402
0.00277683
0.00281281
0.00284814
0.00288282
0.00291685
0.00295023
0.00298295
0.00301502
0.00304643
0.00307717
0.00310723
0.00313659
0.00316529
0.00319331
0.00322064
0.00324728
0.00327321
0.00329843
0.00332292
0.00334666
0.00336965
0.00339189
0.00341334
0.00343402
0.0034539
0.00347298
0.00349125
0.00350871
0.00352534
0.00354115
0.00355613
0.00357029
0.00358362
0.00359613
0.00360783
0.00361871
0.00362879
0.00363808
0.00364658
0.00365431
0.00366127
0.00366757
0.00367315
0.00367805
0.00368224
0.00368561
0.00368836
0.00369048
0.00369198
0.00369288
0.0036932
0.00369297
0.00369221
0.00369092
0.00368916
0.00368691
0.00368419
0.00368101
0.00367737
0.00367327
0.00366872
0.00366372
0.00365826
0.00365233
0.00364593
0.00363905
0.00363169
0.00362386
0.00361555
0.00360677
0.00359753
0.00358782
0.00357764
0.003567
0.00355589
0.0035443
0.00353223
0.00351968
0.00350666
0.00349319
0.00347929
0.00346498
0.00345027
0.00343519
0.00341972
0.00340384
0.00338746
0.0033704
0.00335215
0.00333112
0.0033027
1.41271e-08
1.1181e-06
1.34688e-05
4.52785e-05
8.44859e-05
0.000119277
0.000145861
0.000164465
0.000176544
0.000183394
0.000186415
0.000186591
0.000184795
0.000181668
0.000177714
0.000173158
0.000167988
0.000162242
0.000155878
0.000148776
0.000141049
0.000132496
0.000119703
0.000106982
0.000100018
9.59746e-05
9.30141e-05
0.000100493
0.000118046
0.000138722
0.000159761
0.000178421
0.000193042
0.000202523
0.000210411
0.000219184
0.000232318
0.000250966
0.00027608
0.000308096
0.000346503
0.000391441
0.000442046
0.000498003
0.00055793
0.000620823
0.000685477
0.00075133
0.000817841
0.000884671
0.000951484
0.00101782
0.00108347
0.00114895
0.00121361
0.00127739
0.00134016
0.00140191
0.00146262
0.00152228
0.00158091
0.00163852
0.00169517
0.00175089
0.00180572
0.00185972
0.00191293
0.00196539
0.00201714
0.00206824
0.00211871
0.00216858
0.00221788
0.00226659
0.00231474
0.00236227
0.00240918
0.00245547
0.0025011
0.00254606
0.00259033
0.0026339
0.00267676
0.00271891
0.00276035
0.00280109
0.00284115
0.00288053
0.00291919
0.00295714
0.00299437
0.0030309
0.00306672
0.00310183
0.00313625
0.00316996
0.00320298
0.00323529
0.00326691
0.00329783
0.00332805
0.00335758
0.0033864
0.00341452
0.0034419
0.00346856
0.00349449
0.00351966
0.00354408
0.00356774
0.00359062
0.00361273
0.00363404
0.00365456
0.00367428
0.00369318
0.00371128
0.00372855
0.003745
0.00376063
0.00377544
0.00378942
0.00380258
0.00381493
0.00382646
0.00383719
0.00384712
0.00385627
0.00386463
0.00387228
0.00387919
0.00388538
0.00389085
0.0038956
0.00389955
0.00390289
0.00390554
0.00390754
0.00390892
0.00390971
0.00390992
0.00390957
0.00390869
0.0039073
0.00390541
0.00390303
0.00390016
0.00389683
0.00389304
0.00388878
0.00388406
0.00387888
0.00387323
0.0038671
0.00386049
0.00385341
0.00384586
0.00383783
0.00382934
0.00382039
0.00381097
0.00380109
0.00379074
0.00377991
0.00376861
0.00375682
0.00374454
0.0037318
0.00371859
0.00370495
0.00369089
0.00367644
0.00366162
0.00364645
0.0036309
0.00361494
0.00359844
0.00358106
0.00356132
0.00353651
3.19376e-08
2.58298e-06
2.49498e-05
6.78309e-05
0.000111554
0.000146182
0.000169932
0.000184877
0.00019332
0.000196305
0.000195436
0.00019209
0.000187252
0.000181561
0.000175377
0.000168786
0.000161706
0.000154261
0.000146305
0.000138069
0.000129063
0.000119766
0.000111318
0.000105959
0.000106293
0.000113871
0.000127445
0.000144428
0.000162775
0.000180743
0.000196854
0.00020951
0.000220099
0.000231328
0.00024425
0.000261164
0.000283434
0.000311943
0.000346827
0.000387855
0.000434526
0.000486478
0.000542974
0.000603287
0.000666279
0.000731043
0.000796809
0.000863152
0.000929725
0.000996289
0.00106222
0.0011279
0.00119327
0.0012579
0.0013217
0.00138462
0.00144661
0.00150765
0.00156774
0.00162688
0.00168509
0.00174238
0.0017988
0.0018544
0.00190923
0.00196333
0.00201675
0.00206951
0.0021216
0.00217313
0.00222413
0.00227462
0.0023246
0.0023741
0.00242313
0.00247174
0.0025199
0.00256742
0.00261425
0.00266036
0.00270572
0.00275033
0.00279416
0.0028372
0.00287948
0.00292097
0.00296169
0.0030016
0.00304078
0.00307923
0.00311696
0.00315397
0.00319028
0.00322589
0.00326079
0.00329499
0.00332849
0.00336128
0.00339338
0.00342478
0.00345548
0.00348546
0.00351473
0.00354327
0.00357109
0.00359817
0.00362451
0.0036501
0.00367494
0.00369902
0.00372233
0.00374487
0.00376664
0.00378762
0.00380781
0.00382721
0.00384581
0.00386361
0.0038806
0.00389679
0.00391217
0.00392674
0.0039405
0.00395346
0.00396562
0.00397699
0.00398756
0.00399736
0.00400641
0.00401471
0.00402226
0.00402909
0.00403521
0.00404058
0.00404521
0.00404917
0.00405244
0.00405504
0.004057
0.00405834
0.00405909
0.00405927
0.0040589
0.004058
0.00405658
0.00405466
0.00405226
0.00404938
0.00404603
0.00404222
0.00403794
0.00403321
0.00402801
0.00402234
0.0040162
0.0040096
0.00400254
0.00399503
0.00398707
0.00397866
0.0039698
0.00396049
0.00395073
0.0039405
0.00392979
0.00391861
0.00390695
0.00389482
0.00388223
0.00386921
0.00385578
0.00384195
0.00382776
0.00381323
0.00379837
0.00378316
0.00376754
0.00375121
0.00373305
0.00371204
6.2414e-08
5.40166e-06
3.91149e-05
8.93638e-05
0.00013452
0.000167709
0.000189362
0.000201127
0.00020535
0.000204399
0.000200048
0.000193619
0.000186014
0.000177754
0.000169015
0.000160338
0.000151475
0.000143424
0.000136242
0.000130144
0.000125401
0.000123294
0.000124824
0.000130461
0.000140135
0.000153081
0.000168142
0.000184001
0.00019955
0.000213352
0.000225198
0.000238145
0.000252384
0.000268729
0.000288926
0.000314336
0.00034547
0.000382384
0.00042476
0.000472153
0.000524077
0.00058005
0.000639397
0.00070135
0.000765026
0.000829724
0.000894927
0.000960312
0.0010254
0.00109
0.00115469
0.00121865
0.00128195
0.00134446
0.00140609
0.00146682
0.00152664
0.00158556
0.00164361
0.0017008
0.00175716
0.00181264
0.00186735
0.00192139
0.0019748
0.00202762
0.00207994
0.00213189
0.00218372
0.00223512
0.00228607
0.00233658
0.00238665
0.00243628
0.00248548
0.00253416
0.0025823
0.00262987
0.00267678
0.00272303
0.00276859
0.00281341
0.00285746
0.00290073
0.00294323
0.00298497
0.00302595
0.0030662
0.00310573
0.00314453
0.00318261
0.00321998
0.00325663
0.00329258
0.00332783
0.00336237
0.0033962
0.00342933
0.00346176
0.00349348
0.00352449
0.00355479
0.00358437
0.00361323
0.00364137
0.00366878
0.00369545
0.00372139
0.00374658
0.00377104
0.00379474
0.00381768
0.00383987
0.0038613
0.00388196
0.00390185
0.00392097
0.00393931
0.00395687
0.00397365
0.00398964
0.00400484
0.00401926
0.0040329
0.00404575
0.00405782
0.00406911
0.00407965
0.00408943
0.00409846
0.00410676
0.00411434
0.0041212
0.00412732
0.00413274
0.00413745
0.00414144
0.00414476
0.00414742
0.00414944
0.00415086
0.00415169
0.00415195
0.00415167
0.00415086
0.00414954
0.00414772
0.00414543
0.00414267
0.00413945
0.00413577
0.00413164
0.00412705
0.00412199
0.00411648
0.00411052
0.00410413
0.0040973
0.00409006
0.00408239
0.0040743
0.00406578
0.00405682
0.00404742
0.00403756
0.00402723
0.00401643
0.00400518
0.00399348
0.00398134
0.0039688
0.00395587
0.00394258
0.00392896
0.00391503
0.0039008
0.00388625
0.00387115
0.00385453
0.00383689
1.03949e-07
9.79135e-06
5.44138e-05
0.000110929
0.000157017
0.000188319
0.000206516
0.000214348
0.000214938
0.000210741
0.000203601
0.000194833
0.000185113
0.00017575
0.000166589
0.000158557
0.000151552
0.000146384
0.000143264
0.00014229
0.00014389
0.000148247
0.000155404
0.000165089
0.000176797
0.00018988
0.000203629
0.000216886
0.000229116
0.000242315
0.000257568
0.000274304
0.00029335
0.000316466
0.000344291
0.000377251
0.000415255