/*--------------------------------*- C++ -*----------------------------------*\
  =========                 |
  \\      /  F ield         | OpenFOAM: The Open Source CFD Toolbox
   \\    /   O peration     | Website:  https://openfoam.org
    \\  /    A nd           | Version:  13
     \\/     M anipulation  |
\*---------------------------------------------------------------------------*/
FoamFile
{
    format      ascii;
    class       volScalarField;
    location    "1800";
    object      omega;
}
// * * * * * * * * * * * * * * * * * * * * * * * * * * * * * * * * * * * * * //

dimensions      [0 0 -1 0 0 0 0];

internalField   nonuniform List<scalar> 
12225
(
31477.7
38392.1
41474.4
54603.1
49843.8
55138.7
46579
38312.7
46819.7
43332.6
31477.7
31477.7
31477.7
31477.7
31477.7
37789
45420.6
40019.4
865869
438355
152959
77284
38120.8
20865.1
10659.4
3861.43
14673.8
22950
22884.1
21660.2
20206.6
19613.1
19184.4
19167.1
19482.4
19607
202561
127575
53706.2
23805.3
18630.4
19974.2
16517.6
11478.4
10039.5
10431.3
8818.32
7952.77
7779.32
7821.78
8005.07
8080.83
8233.83
8267.53
59476.8
46497.4
21004.2
12451.9
18100
16510.1
12481.6
7525.44
7390.98
6912.32
5750.87
5255.12
4892.36
4467.28
4402.5
4399.37
4382.22
4767.74
15620
18864.6
16293.2
18880.7
16444.5
11898.7
7561.78
5041.59
3203.16
3515.46
2885.51
2673.8
2650.23
2583.13
2548.75
2798.95
2520.05
2547.36
4526.19
0.279496
10127.6
11618.9
9677.92
6770.04
4353.09
2535.81
2681.51
2090.37
1828.96
1819.42
1876.18
1875.62
2166.44
1924.43
2155.87
2066.56
0.398288
4204.65
1392.32
4325.31
4082.17
3152.55
1827.1
2020.93
1783.95
1369.3
1143.05
1095.62
1098.7
1250.62
1340.82
1525.92
1453.75
1539.41
237.909
332.643
702.929
1261.37
1812.02
1588.7
1085.92
1185.61
1038.69
878.653
813.392
810.508
839.264
890.703
944.301
997.294
1038.83
1013.98
435.523
432.858
522.6
550.8
798.086
826.853
732.694
618.867
677.871
616.785
592.865
594.968
606.653
626.925
643.262
663.635
677.398
681.629
438.851
437.171
430.541
448.753
492.592
527.594
526.484
488.937
514.13
493.63
485.909
487.799
492.538
500.426
506.358
514.125
518.631
525.12
439.585
435.386
432.17
430.281
432.971
446.951
450.893
443.59
450.077
444.38
441.442
441.676
443.18
445.691
447.692
450.376
451.853
454.957
439.406
436.432
433.535
431.643
429.163
430.168
429.871
428.619
427.24
428.034
426.516
425.791
425.774
426.222
426.609
427.197
427.384
428.298
439.134
436.731
434.394
432.371
430.308
428.674
427.168
425.667
424.294
423.032
421.959
420.921
420.096
419.414
418.746
418.296
417.612
417.309
439.031
436.776
434.624
432.61
430.677
428.879
427.16
425.536
424.001
422.543
421.185
419.913
418.698
417.599
416.517
415.556
414.585
413.725
439.005
436.778
434.655
432.653
430.737
428.934
427.203
425.572
424.008
422.532
421.115
419.782
418.496
417.287
416.125
415.025
413.972
412.972
439.001
436.775
434.657
432.65
430.74
428.929
427.203
425.564
424.001
422.515
421.098
419.748
418.46
417.232
416.06
414.941
413.873
412.853
439.001
436.772
434.655
432.646
430.735
428.921
427.193
425.551
423.986
422.497
421.077
419.725
418.434
417.203
416.028
414.906
413.835
412.812
438.999
436.769
434.65
432.638
430.726
428.909
427.179
425.535
423.968
422.476
421.055
419.699
418.407
417.174
415.997
414.873
413.801
412.776
439
436.771
434.653
432.642
430.73
428.913
427.184
425.538
423.972
422.479
421.057
419.701
418.408
417.175
415.997
414.873
413.8
412.775
439
436.773
434.655
432.646
430.734
428.918
427.189
425.545
423.979
422.488
421.066
419.711
418.418
417.185
416.009
414.885
413.813
412.788
439.001
436.773
434.658
432.648
430.74
428.923
427.198
425.554
423.991
422.5
421.081
419.727
418.438
417.207
416.034
414.914
413.846
412.825
439.002
436.773
434.664
432.653
430.75
428.935
427.216
425.574
424.022
422.537
421.134
419.792
418.53
417.318
416.182
415.088
414.064
413.073
438.996
436.777
434.68
432.669
430.798
429.001
427.34
425.742
424.287
422.883
421.615
420.412
419.348
418.324
417.449
416.575
415.85
415.094
438.922
436.836
434.714
432.854
431.286
429.85
428.722
427.593
426.883
426.133
425.779
425.471
425.476
425.559
425.882
426.171
426.775
427.099
438.6
437.126
435.129
435.366
436.095
437.619
439.916
441.295
444.204
446.707
450.251
453.44
457.722
461.379
466.018
469.66
474.205
477.489
437.401
441.492
446.306
456.589
469.145
481.301
496.392
510.116
525.986
539.63
555.425
568.802
584.579
597.495
612.843
624.677
638.945
649.194
428.14
480.828
527.709
585.084
645.326
701.695
764.381
818.848
876.044
922.272
972.355
1011.96
1057.51
1093.17
1135.92
1168.02
1207.66
1235.29
495.553
790.174
1104.42
1391.23
1655.83
1892.38
2127.67
2321.21
2502.04
2637.96
2773.03
2872.22
2981.28
3066.1
3165.41
3243.97
3337.4
3406.53
1973.94
4320.13
6118.98
7421.11
8387.27
9041.86
9464.08
9751.07
9902.14
10003.1
10019.6
10021.8
9993.95
9974.71
9940.8
9911.34
9889.59
9872.29
18117.5
23940.9
25671.2
26477.3
26861.2
26814.3
26651.3
26395.7
26066.6
25732.9
25408.5
25101.4
24817.4
24559.3
24325.7
24119.2
23935.4
23773.1
11463.2
2514.24
2516.41
2518.61
2520.83
2523.07
2525.32
2527.6
2529.9
2532.22
2534.57
2536.93
2539.31
2541.72
2544.15
2546.6
2549.08
2551.57
2554.09
2556.64
2559.2
2561.79
2564.41
2567.05
2569.71
2572.4
2575.12
2577.86
2580.62
2583.41
2586.23
2589.08
2591.95
2594.85
2597.77
2600.73
2603.71
2606.72
2609.76
2612.82
2615.92
2619.05
2622.2
2625.39
2628.61
2631.86
2635.14
2638.45
2641.79
2645.17
2648.58
2652.02
2655.5
2659.01
2662.55
2666.13
2669.74
2673.39
3353.84
3271.1
2684.56
3306.93
3346.5
3471.24
3289.75
3457.37
3511.58
3601.87
3673.09
3749.09
3819.37
3889.06
3956.43
4022.31
4086.72
4149.74
4211.55
4272.14
4331.66
4390.08
4447.53
4503.95
4559.45
4613.98
4667.61
4720.33
4772.12
4823.02
4872.97
4922.02
4970.14
5017.28
5063.42
5108.48
5152.48
5195.29
5236.94
5277.31
5316.45
5354.31
5391.02
5426.76
5461.92
5496.17
5529.29
5561.49
5592.59
5622.74
5651.78
5679.82
5706.74
5732.63
5757.38
5781.06
5803.61
5825.07
5845.4
5864.63
5882.76
5899.77
5915.7
5930.55
5944.37
5957.11
5968.87
5979.51
5989.18
5997.73
6005.3
6012.39
6018.66
6024.32
6027.12
6031.2
6034.66
6036.72
6038.46
6039.89
6040.24
6039.84
6038.18
6036.81
6034.03
6031.03
6027.52
6023.5
6019.04
6014.08
6008.67
6002.76
5996.39
5989.51
5982.09
5974.44
5965.91
5957.48
5947.91
5938.79
5928.3
5918.68
5907.63
5897.48
5885.74
5874.41
5862.3
5849.95
5837.17
5824.05
5810.63
5796.94
5783.01
5768.88
5754.45
5739.66
5724.16
5707.35
5688.16
5664.45
5629.66
5504.79
11463.2
1991.62
1009.4
827.725
704.121
613.581
618.47
617.952
608.79
587.828
563.657
539.289
517.228
499.207
486.662
478.074
476.648
478.077
500.798
541.856
621.976
721.051
830.84
941.022
1042.41
1121.33
1175.6
1175.45
1150.84
1085.09
975.192
848.077
699.662
602.623
528.151
474.085
452.245
452.114
464.553
488.247
518.733
549.654
605.961
703.09
823.807
1050.57
1394.17
1694.17
1882.39
2000.71
2050.76
2061.5
2034.75
1989.2
1939.15
1884.71
1837.73
1791.16
1794.16
1708.35
1669.31
1685.14
1653.58
1652.42
1638.43
1636.99
1633.69
1636.71
1638.48
1643.18
1648.09
1654.26
1660.95
1668.24
1675.92
1683.94
1692.18
1700.6
1709.13
1717.75
1726.39
1735.04
1743.66
1752.23
1760.73
1769.14
1777.42
1785.56
1793.53
1801.34
1808.91
1816.29
1823.4
1830.27
1836.87
1843.24
1849.38
1855.37
1861.28
1867.29
1873.61
1880.58
1888.61
1896.87
1904.8
1912.5
1919.99
1927.22
1934.24
1941.02
1947.57
1953.88
1959.97
1965.83
1971.46
1976.87
1982.06
1987.03
1991.79
1996.34
2000.69
2004.84
2008.79
2012.55
2016.1
2019.46
2022.63
2025.62
2028.47
2031.21
2033.77
2036.17
2038.28
2040.44
2042.48
2044.29
2045.89
2047.1
2047.44
2047.27
2047.7
2047.18
2046.88
2046.47
2045.91
2045.2
2044.35
2043.34
2042.18
2040.86
2039.38
2037.75
2035.97
2034.06
2032.05
2029.48
2027.61
2024.58
2022.58
2019.13
2016.88
2013.39
2010.57
2007.24
2003.85
2000.35
1996.71
1992.99
1989.16
1985.26
1981.3
1977.31
1973.28
1969.25
1965.25
1961.37
1957.71
1954.79
1951.98
1959.37
11463.2
1996.78
800
607.418
638.392
662.509
641.368
592.345
533.53
477.723
427.547
386.492
353.907
328.24
308.276
292.92
281.815
273.768
269.885
271.458
279.971
295.988
326
367.409
421.32
480.319
544.443
593.596
632.897
637.891
625.012
590.849
532.846
464.998
405.649
371.978
373.822
386.332
409.967
452.39
533.795
653.954
825.845
1026.1
1194.27
1333.85
1463.63
1534.07
1548.06
1532.48
1482.14
1425.75
1363.88
1308.38
1258.39
1214.9
1177.96
1149.88
1133.41
1111.53
1099.19
1093.81
1086.09
1086.32
1083.83
1083.34
1084.01
1085.9
1088.19
1091.23
1094.6
1098.38
1102.4
1106.66
1111.08
1115.63
1120.27
1124.99
1129.76
1134.55
1139.35
1144.15
1148.94
1153.7
1158.41
1163.08
1167.68
1172.22
1176.68
1181.06
1185.36
1189.58
1193.7
1197.76
1201.74
1205.67
1209.57
1213.48
1217.43
1221.46
1225.6
1229.87
1234.18
1238.38
1242.44
1246.38
1250.2
1253.88
1257.44
1260.87
1264.19
1267.37
1270.43
1273.37
1276.19
1278.88
1281.46
1283.92
1286.26
1288.49
1290.6
1292.61
1294.5
1296.27
1297.94
1299.5
1300.94
1302.29
1303.55
1304.72
1305.78
1306.73
1307.55
1308.3
1308.97
1309.48
1309.84
1310.01
1309.95
1309.83
1309.7
1309.41
1308.98
1308.48
1307.87
1307.16
1306.34
1305.41
1304.37
1303.23
1301.98
1300.62
1299.15
1297.56
1295.93
1294.04
1292.3
1290.16
1288.25
1285.88
1283.8
1281.3
1278.91
1276.34
1273.69
1270.96
1268.15
1265.27
1262.32
1259.32
1256.29
1253.22
1250.17
1247.14
1244.22
1241.53
1239.25
1237.96
1238.43
1247.8
11463.2
2023.78
950.218
915.567
869.734
765.292
652.302
547.841
463.968
401.333
354.331
317.63
288.876
266.605
249.342
236.086
225.986
218.56
213.409
210.601
211.001
213.122
220.077
232.156
251.93
278.553
312.816
347.855
382.325
407.39
421.137
418.206
404.494
379.589
391.541
448.739
523.535
580.855
640.672
720.073
835.703
975.424
1081.39
1154.35
1217.78
1261.02
1272.57
1217.23
1188.19
1133.81
1084.87
1039.07
999.282
966.386
939.093
917.245
900.093
887.596
879.016
871.551
867.161
864.978
863.768
863.914
864.461
865.781
867.657
869.997
872.651
875.613
878.781
882.141
885.641
889.259
892.97
896.753
900.593
904.474
908.384
912.311
916.246
920.179
924.102
928.007
931.887
935.735
939.547
943.317
947.043
950.725
954.361
957.951
961.497
965.003
968.474
971.919
975.344
978.76
982.171
985.579
988.978
992.35
995.651
998.857
1001.97
1004.98
1007.9
1010.71
1013.44
1016.06
1018.59
1021.02
1023.35
1025.58
1027.71
1029.75
1031.69
1033.52
1035.26
1036.91
1038.45
1039.9
1041.25
1042.5
1043.65
1044.71
1045.67
1046.54
1047.32
1048.01
1048.61
1049.1
1049.49
1049.77
1049.96
1050.04
1050
1049.83
1049.54
1049.19
1048.77
1048.23
1047.61
1046.89
1046.07
1045.16
1044.16
1043.05
1041.85
1040.55
1039.15
1037.65
1036.06
1034.37
1032.61
1030.71
1028.78
1026.68
1024.59
1022.3
1020.04
1017.6
1015.13
1012.56
1009.92
1007.21
1004.43
1001.59
998.691
995.751
992.778
989.783
986.797
983.858
981.034
978.437
976.229
974.853
975.18
980.721
11463.2
2227.09
1369.35
1153.04
930.158
728.077
564.547
452.628
376.47
323.231
284.977
257.128
236.667
221.34
209.55
200.39
193.255
187.881
184.035
181.665
181.247
182.029
184.542
189.833
198.987
212.804
232.378
255.408
279.978
302.775
317.102
329.858
367.17
434.968
535.122
611.999
679.952
754.094
832.711
904.019
965.264
1018.69
1063.99
1084.07
1086.36
1043.55
1003.87
962.202
926.115
887.077
856.277
829.099
807.055
789.284
775.224
764.46
756.516
751.008
747.441
745.432
744.657
744.631
745.537
747.147
749.128
751.529
754.239
757.204
760.364
763.692
767.151
770.721
774.38
778.113
781.907
785.748
789.628
793.535
797.461
801.399
805.339
809.276
813.202
817.112
821
824.861
828.691
832.486
836.245
839.965
843.649
847.292
850.898
854.464
857.995
861.49
864.953
868.379
871.768
875.112
878.399
881.62
884.761
887.817
890.785
893.666
896.458
899.16
901.769
904.286
906.709
909.037
911.269
913.406
915.443
917.382
919.22
920.957
922.592
924.125
925.556
926.883
928.107
929.226
930.242
931.155
931.967
932.676
933.286
933.793
934.197
934.494
934.688
934.756
934.701
934.558
934.3
933.929
933.453
932.896
932.247
931.499
930.656
929.715
928.677
927.541
926.309
924.979
923.552
922.028
920.408
918.693
916.886
914.983
912.999
910.906
908.746
906.471
904.137
901.688
899.184
896.578
893.906
891.154
888.333
885.446
882.496
879.489
876.431
873.332
870.203
867.066
863.945
860.875
857.913
855.154
852.728
850.957
850.523
853.053
11463.2
2770.29
1679.54
1196.71
841.571
597.554
452.668
362.151
304.576
267.001
241.038
222.19
207.822
196.607
187.618
180.376
174.595
170.204
167.06
165.223
164.924
165.656
167.689
171.74
178.091
187.327
200.629
218.439
240.795
270.773
317.831
380.588
482.875
586.138
662.985
730.489
791.256
839.929
877.845
911.219
941.943
954.704
947.654
916.055
887.007
852.135
820.903
790.917
765.031
741.723
723.193
707.575
695.237
685.627
678.434
673.331
670.018
668.429
667.888
668.091
669.267
671.062
673.407
676.165
679.212
682.518
686.024
689.693
693.492
697.4
701.397
705.47
709.605
713.794
718.026
722.293
726.587
730.9
735.225
739.554
743.881
748.199
752.501
756.784
761.04
765.267
769.459
773.614
777.728
781.802
785.831
789.818
793.759
797.655
801.504
805.305
809.057
812.757
816.4
819.978
823.482
826.91
830.254
833.514
836.685
839.767
842.758
845.654
848.454
851.155
853.755
856.252
858.644
860.933
863.113
865.182
867.138
868.98
870.707
872.317
873.81
875.185
876.441
877.577
878.595
879.494
880.275
880.938
881.485
881.913
882.223
882.409
882.467
882.375
882.196
881.896
881.476
880.937
880.288
879.537
878.684
877.725
876.665
875.5
874.233
872.862
871.39
869.816
868.141
866.365
864.491
862.519
860.452
858.289
856.036
853.685
851.247
848.712
846.096
843.386
840.6
837.727
834.779
831.757
828.665
825.508
822.288
819.012
815.686
812.321
808.927
805.525
802.137
798.798
795.555
792.485
789.691
787.407
786
786.508
11463.2
3316.78
1753.22
1054.5
669.79
470.609
366.057
307.458
270.215
244.295
224.752
209.444
197.038
186.861
178.356
171.326
165.652
161.32
158.347
156.795
156.807
158.018
161.037
166.263
174.324
186.566
203.116
227.345
266.093
327.32
420.929
524.241
608.105
674.956
731.074
773.88
805.627
831.77
849.83
856.182
845.012
821.137
799.552
772.829
748.265
723.175
701.069
681.284
664.617
650.536
639.275
630.228
623.362
618.391
615.133
613.494
612.965
613.295
614.596
616.595
619.206
622.288
625.753
629.517
633.509
637.689
642.018
646.469
651.019
655.652
660.354
665.115
669.927
674.78
679.669
684.585
689.521
694.469
699.421
704.37
709.309
714.231
719.13
724.001
728.838
733.636
738.391
743.1
747.759
752.366
756.92
761.42
765.862
770.247
774.572
778.837
783.036
787.171
791.235
795.227
799.145
802.979
806.724
810.375
813.932
817.391
820.748
824
827.145
830.177
833.095
835.894
838.571
841.118
843.54
845.832
847.994
850.022
851.916
853.675
855.296
856.779
858.125
859.332
860.401
861.333
862.127
862.786
863.308
863.697
863.945
864.042
863.993
863.82
863.52
863.089
862.526
861.835
861.021
860.091
859.045
857.883
856.598
855.196
853.683
852.06
850.328
848.488
846.54
844.486
842.326
840.065
837.703
835.242
832.683
830.025
827.272
824.423
821.484
818.453
815.338
812.138
808.858
805.503
802.076
798.581
795.023
791.407
787.742
784.036
780.304
776.561
772.83
769.142
765.539
762.08
758.845
756
753.732
752.621
11463.2
3515.6
1596.04
846.098
532.782
391.25
317.941
275.179
247.626
228.388
213.899
202.065
191.818
182.7
174.743
168.029
162.648
158.85
156.72
156.34
157.459
160.33
165.577
173.87
187.483
209.438
242.585
295.128
375.565
465.085
541.903
605.134
659.475
702.951
736.041
762.468
775.796
778.655
767.565
749.35
731.203
710.726
691.674
671.921
653.575
636.257
621.26
608.369
597.696
589.011
582.249
577.181
573.682
571.798
571.125
571.281
572.497
574.511
577.233
580.532
584.311
588.477
592.958
597.69
602.62
607.712
612.935
618.265
623.683
629.175
634.729
640.335
645.985
651.672
657.387
663.124
668.875
674.63
680.381
686.12
691.837
697.526
703.181
708.795
714.362
719.878
725.337
730.738
736.073
741.342
746.542
751.672
756.731
761.716
766.627
771.46
776.215
780.887
785.477
789.984
794.403
798.723
802.938
807.047
811.044
814.927
818.693
822.337
825.854
829.242
832.497
835.614
838.589
841.423
844.111
846.649
849.035
851.267
853.342
855.259
857.016
858.614
860.052
861.329
862.447
863.406
864.206
864.848
865.335
865.666
865.826
865.831
865.678
865.381
864.937
864.348
863.614
862.738
861.725
860.581
859.309
857.911
856.392
854.748
852.983
851.101
849.102
846.989
844.76
842.419
839.967
837.406
834.739
831.967
829.092
826.114
823.034
819.855
816.581
813.214
809.756
806.211
802.582
798.875
795.094
791.242
787.324
783.347
779.32
775.252
771.157
767.05
762.953
758.893
754.906
751.04
747.356
743.967
740.935
738.45
11463.2
3440.21
1333.27
684.686
451.308
349.715
296.353
263.942
242.147
225.687
212.459
201.399
191.854
183.599
176.512
170.743
166.543
164.101
163.579
165.361
169.558
177.189
189.642
208.607
239.268
287.417
351.673
422.453
485.427
541.482
589.867
631.058
665.103
693.85
709.606
713.33
705.385
692.023
676.48
660.161
644.741
629.454
614.939
600.701
587.545
575.687
565.569
557.123
550.336
545.09
541.296
538.956
537.945
537.81
538.71
540.512
543.132
546.448
550.366
554.794
559.65
564.861
570.364
576.105
582.041
588.135
594.36
600.694
607.119
613.618
620.176
626.784
633.429
640.104
646.798
653.508
660.224
666.932
673.625
680.29
686.921
693.507
700.043
706.522
712.937
719.281
725.543
731.716
737.809
743.819
749.747
755.588
761.345
767.013
772.592
778.078
783.47
788.764
793.958
799.046
804.023
808.884
813.624
818.241
822.729
827.085
831.303
835.381
839.313
843.095
846.721
850.188
853.491
856.628
859.595
862.389
865.006
867.444
869.7
871.772
873.66
875.362
876.879
878.211
879.36
880.325
881.109
881.712
882.136
882.373
882.431
882.314
882.025
881.569
880.949
880.166
879.224
878.125
876.875
875.479
873.943
872.268
870.458
868.517
866.446
864.249
861.928
859.483
856.917
854.23
851.425
848.504
845.47
842.325
839.071
835.707
832.236
828.661
824.985
821.212
817.343
813.382
809.333
805.201
800.991
796.706
792.353
787.939
783.472
778.964
774.427
769.878
765.335
760.825
756.377
752.032
747.835
743.869
740.183
736.629
11463.2
3073.68
1083.01
574.808
402.243
325.397
284.632
259.272
241.155
227.668
216.875
207.702
199.695
192.848
187.348
183.635
182.216
183.394
187.488
195.352
207.773
226.966
255.165
294.034
341.644
392.148
442.42
489.147
530.528
567.17
598.561
626.175
645.837
652.959
651.152
642.425
630.428
617.407
604.66
592.543
581.118
570.007
559.307
549.085
539.792
531.678
524.92
519.507
515.405
512.548
511.065
510.606
511.059
512.495
514.83
517.97
521.836
526.341
531.407
536.958
542.928
549.254
555.878
562.748
569.822
577.064
584.444
591.941
599.548
607.228
614.964
622.742
630.55
638.37
646.182
653.957
661.69
669.404
677.097
684.755
692.367
699.923
707.417
714.841
722.188
729.452
736.629
743.718
750.699
757.571
764.328
770.975
777.509
783.929
790.234
796.422
802.49
808.437
814.259
819.952
825.513
830.939
836.225
841.366
846.357
851.193
855.871
860.385
864.729
868.898
872.886
876.69
880.304
883.725
886.949
889.972
892.792
895.404
897.807
899.998
901.976
903.742
905.294
906.635
907.766
908.688
909.404
909.914
910.217
910.314
910.217
909.922
909.435
908.762
907.907
906.873
905.664
904.285
902.74
901.036
899.178
897.171
895.019
892.726
890.294
887.728
885.03
882.201
879.244
876.16
872.95
869.617
866.165
862.596
858.91
855.109
851.197
847.176
843.049
838.82
834.491
830.065
825.546
820.939
816.249
811.481
806.641
801.737
796.78
791.781
786.752
781.708
776.669
771.657
766.699
761.828
757.08
752.529
748.174
743.62
11463.2
2617.95
904.581
517.2
381.39
318.395
283.416
262.003
247.639
236.965
228.418
221.357
215.678
211.73
210.169
211.218
215.975
224.276
235.66
251.549
273.712
302.356
336.25
373.265
410.873
447.236
481.438
512.649
539.995
564.727
586.069
596.724
599.092
595.963
588.747
579.219
569.198
559.539
550.474
541.894
533.627
525.552
517.782
510.533
504.106
498.689
494.38
491.189
489.211
488.402
488.388
489.431
491.4
494.259
497.951
502.407
507.553
513.318
519.634
526.436
533.667
541.291
549.234
557.438
565.861
574.463
583.202
592.025
600.852
609.75
618.715
627.73
636.777
645.835
654.883
663.918
672.928
681.891
690.807
699.653
708.416
717.09
725.668
734.146
742.516
750.772
758.902
766.895
774.747
782.457
790.025
797.454
804.744
811.896
818.907
825.775
832.499
839.078
845.509
851.789
857.917
863.885
869.691
875.327
880.789
886.07
891.167
896.073
900.783
905.291
909.591
913.676
917.543
921.188
924.605
927.793
930.747
933.464
935.942
938.179
940.172
941.924
943.434
944.704
945.736
946.534
947.098
947.429
947.531
947.411
947.069
946.51
945.741
944.767
943.594
942.226
940.669
938.928
937.01
934.92
932.666
930.253
927.685
924.968
922.105
919.101
915.958
912.679
909.266
905.722
902.045
898.241
894.311
890.258
886.084
881.791
877.383
872.863
868.234
863.499
858.66
853.72
848.682
843.551
838.332
833.032
827.657
822.216
816.722
811.185
805.617
800.034
794.452
788.893
783.379
777.942
772.607
767.44
762.429
756.961
11463.2
2166.29
790.74
480.585
368.914
316.203
287.662
270.608
259.379
251.404
245.517
241.401
239.535
239.568
242.824
249.629
259.83
272.922
289.391
309.778
333.565
359.823
387.381
415.066
441.9
467.185
490.23
511.689
531.443
544.606
549.756
550.479
548.189
542.866
536.168
529.06
522.164
515.642
509.418
503.372
497.434
491.651
486.187
481.265
477.099
473.836
471.574
470.476
470.25
470.996
472.69
475.325
478.853
483.242
488.472
494.472
501.146
508.434
516.271
524.587
533.297
542.266
551.522
561.075
570.897
580.946
591.184
601.58
612.135
622.773
633.451
644.14
654.823
665.463
676.02
686.478
696.822
707.035
717.103
727.039
736.852
746.544
756.113
765.559
774.874
784.048
793.065
801.915
810.59
819.09
827.415
835.571
843.559
851.38
859.032
866.513
873.823
880.96
887.924
894.713
901.324
907.751
913.989
920.031
925.87
931.502
936.919
942.118
947.092
951.835
956.339
960.599
964.609
968.365
971.864
975.101
978.075
980.781
983.217
985.382
987.273
988.893
990.243
991.323
992.139
992.692
992.987
993.026
992.813
992.352
991.65
990.712
989.547
988.159
986.556
984.745
982.732
980.526
978.133
975.559
972.812
969.898
966.822
963.591
960.209
956.681
953.009
949.199
945.252
941.17
936.954
932.607
928.132
923.53
918.804
913.958
908.997
903.923
898.738
893.445
888.046
882.541
876.936
871.233
865.438
859.559
853.604
847.583
841.509
835.392
829.244
823.079
816.914
810.767
804.659
798.62
792.668
786.862
781.203
774.88
11463.2
1966.23
765.184
474.714
369.402
321.655
297.03
283.032
274.497
269.13
266.193
265.242
266.273
270.16
276.989
286.632
298.852
313.443
330.206
348.823
368.819
389.502
410.124
429.91
448.544
466.469
483.559
497.165
504.267
507.206
508.078
506.971
503.888
499.767
495.279
490.775
486.398
482.143
477.961
473.84
469.826
466.044
462.668
459.882
457.88
456.902
456.728
457.599
459.527
462.377
466.12
470.738
476.189
482.4
489.229
496.675
504.822
513.642
523.077
533.067
543.555
554.525
565.899
577.611
589.613
601.862
614.301
626.881
639.577
652.308
664.982
677.537
689.909
702.069
714.004
725.704
737.161
748.376
759.365
770.161
780.8
791.289
801.639
811.856
821.934
831.85
841.579
851.108
860.433
869.549
878.462
887.173
895.688
904.006
912.128
920.05
927.773
935.297
942.62
949.744
956.662
963.374
969.868
976.14
982.181
987.985
993.546
998.859
1003.92
1008.72
1013.25
1017.5
1021.48
1025.17
1028.57
1031.68
1034.5
1037.02
1039.25
1041.17
1042.79
1044.11
1045.13
1045.86
1046.29
1046.45
1046.31
1045.91
1045.22
1044.27
1043.06
1041.59
1039.89
1037.94
1035.77
1033.38
1030.78
1027.98
1024.98
1021.8
1018.44
1014.91
1011.22
1007.36
1003.36
999.199
994.9
990.46
985.885
981.177
976.337
971.367
966.27
961.044
955.696
950.233
944.656
938.969
933.172
927.266
921.252
915.133
908.911
902.589
896.171
889.669
883.092
876.452
869.759
863.024
856.258
849.476
842.691
835.92
829.185
822.514
815.92
809.457
803.16
796.041
11463.2
1870.61
733.169
468.729
372.966
330.126
308.745
297.207
290.765
287.656
286.703
287.59
291.047
296.903
304.983
314.996
326.676
339.758
354.011
369.033
384.347
399.469
414.231
428.784
442.824
454.582
462.469
467.515
470.425
471.569
471.784
470.929
469.137
466.944
464.595
462.218
459.854
457.528
455.27
453.169
451.367
450.164
449.652
449.686
450.57
452.296
454.792
457.979
461.752
466.432
472.069
478.659
486.173
494.579
503.878
514.034
524.982
536.671
549.02
561.953
575.403
589.318
603.612
618.204
633.031
648.072
663.217
678.347
693.347
708.133
722.654
736.844
750.644
764.017
776.947
789.43
801.469
813.079
824.331
835.323
846.178
856.889
867.476
877.971
888.364
898.605
908.625
918.429
928.011
937.367
946.494
955.398
964.081
972.546
980.791
988.815
996.619
1004.2
1011.56
1018.7
1025.62
1032.3
1038.75
1044.95
1050.9
1056.59
1062
1067.14
1072
1076.58
1080.86
1084.84
1088.52
1091.88
1094.93
1097.66
1100.07
1102.16
1103.93
1105.37
1106.48
1107.27
1107.76
1107.91
1107.76
1107.31
1106.55
1105.5
1104.15
1102.52
1100.61
1098.44
1096.01
1093.33
1090.42
1087.29
1083.95
1080.4
1076.66
1072.73
1068.62
1064.34
1059.89
1055.28
1050.52
1045.62
1040.57
1035.39
1030.08
1024.64
1019.08
1013.4
1007.59
1001.66
995.617
989.467
983.211
976.848
970.377
963.8
957.117
950.33
943.442
936.453
929.368
922.202
914.967
907.672
900.327
892.94
885.525
878.093
870.659
863.234
855.845
848.52
841.278
834.157
827.238
819.374
11463.2
1845.58
729.551
471.245
380.504
340.989
321.71
311.5
306.157
303.886
303.481
305.327
309.615
315.791
323.463
332.314
342.139
352.697
363.752
374.991
386.338
397.896
409.039
418.5
425.858
431.585
436.227
439.542
441.881
443.467
444.538
445.135
445.461
445.761
446.181
446.586
447.012
447.519
448.168
449.027
450.121
451.353
453.046
455.584
459.243
463.892
469.505
476.131
483.835
492.574
502.363
513.204
525.056
537.857
551.572
566.141
581.535
597.707
614.445
631.619
649.126
666.871
684.759
702.692
720.57
738.258
755.698
772.833
789.572
805.82
821.484
836.467
850.702
864.185
876.943
889.003
900.371
911.012
921.12
930.916
940.848
950.695
960.483
970.338
980.226
990.044
999.719
1009.2
1018.46
1027.46
1036.22
1044.74
1053.02
1061.07
1068.89
1076.48
1083.83
1090.96
1097.85
1104.51
1110.95
1117.14
1123.09
1128.78
1134.21
1139.35
1144.21
1148.77
1153.04
1157
1160.66
1163.99
1167
1169.68
1172.02
1174.02
1175.69
1177.02
1178.02
1178.67
1178.97
1178.93
1178.59
1177.89
1176.87
1175.54
1173.89
1171.94
1169.68
1167.13
1164.29
1161.19
1157.81
1154.2
1150.34
1146.26
1141.97
1137.48
1132.8
1127.92
1122.87
1117.65
1112.27
1106.73
1101.05
1095.23
1089.28
1083.21
1077.01
1070.69
1064.27
1057.73
1051.09
1044.36
1037.55
1030.64
1023.64
1016.53
1009.33
1002.02
994.605
987.095
979.49
971.789
963.996
956.132
948.206
940.226
932.198
924.132
916.038
907.932
899.826
891.734
883.684
875.705
867.816
860.042
852.516
843.958
11463.7
1818.6
724.758
476.904
389.995
351.856
333.351
323.457
318.165
315.898
315.501
317.393
321.465
326.914
333.352
340.508
348.269
356.451
364.965
373.626
381.899
389.576
396.562
403.085
409.098
414.556
419.59
424.199
428.488
432.523
436.352
439.936
443.25
446.199
448.818
451.543
454.487
457.75
461.422
465.616
470.453
476.192
483.01
491.162
500.804
511.519
523.321
536.236
550.263
565.346
581.478
598.738
617.015
636.058
655.706
675.815
696.199
716.693
737.257
757.806
778.246
798.489
818.462
838.097
857.33
876.1
894.361
912.065
929.156
945.563
961.199
975.921
989.63
1002.42
1014.41
1025.67
1036.22
1046.08
1055.29
1063.95
1072.23
1080.19
1088.06
1096.38
1104.95
1113.51
1121.99
1130.27
1138.29
1146.03
1153.52
1160.75
1167.75
1174.52
1181.07
1187.39
1193.48
1199.35
1205
1210.44
1215.66
1220.66
1225.43
1229.94
1234.19
1238.16
1241.85
1245.22
1248.3
1251.07
1253.54
1255.68
1257.49
1258.98
1260.11
1260.9
1261.36
1261.47
1261.29
1260.73
1259.82
1258.57
1257
1255.09
1252.86
1250.31
1247.46
1244.3
1240.84
1237.11
1233.09
1228.82
1224.29
1219.52
1214.52
1209.31
1203.89
1198.28
1192.48
1186.51
1180.37
1174.07
1167.62
1161.03
1154.3
1147.45
1140.48
1133.4
1126.21
1118.92
1111.54
1104.05
1096.48
1088.85
1081.14
1073.36
1065.48
1057.52
1049.46
1041.31
1033.06
1024.73
1016.31
1007.82
999.28
990.679
982.024
973.319
964.572
955.792
946.993
938.189
929.393
920.62
911.903
903.269
894.735
886.311
878.186
868.983
11462.8
1801.12
725.272
483.531
397.32
359.415
341.098
330.982
325.596
323.336
322.964
324.786
328.443
333.22
338.916
345.424
352.497
359.947
367.621
375.3
383.051
390.576
397.918
405.091
412.046
418.824
425.515
432.152
438.816
445.579
452.495
459.514
466.725
474.324
482.478
491.207
500.606
510.794
521.877
533.991
547.249
561.789
577.579
594.522
612.314
631.136
651.025
671.938
693.729
716.272
739.441
763.191
787.125
811.11
834.987
858.609
881.815
904.473
926.498
947.823
968.407
988.232
1007.3
1025.6
1043.15
1059.97
1076.08
1091.49
1106.2
1120.22
1133.53
1146.17
1158.08
1169.16
1179.59
1189.46
1198.78
1207.57
1215.75
1223.29
1229.95
1236.19
1242.42
1248.91
1255.31
1261.49
1267.42
1273.08
1278.49
1283.64
1288.58
1293.32
1297.88
1302.27
1306.47
1310.51
1314.37
1318.06
1321.58
1324.95
1328.15
1331.17
1334
1336.61
1338.99
1341.13
1343.01
1344.57
1345.88
1346.92
1347.67
1348.13
1348.28
1348.17
1347.66
1346.85
1345.74
1344.33
1342.61
1340.57
1338.21
1335.53
1332.54
1329.25
1325.67
1321.79
1317.64
1313.21
1308.52
1303.58
1298.38
1292.95
1287.29
1281.42
1275.34
1269.07
1262.62
1256
1249.21
1242.27
1235.17
1227.94
1220.58
1213.09
1205.48
1197.76
1189.93
1182.01
1173.99
1165.88
1157.68
1149.39
1141.01
1132.55
1124.01
1115.39
1106.68
1097.88
1089
1080.03
1070.98
1061.84
1052.63
1043.36
1034.05
1024.69
1015.28
1005.83
996.349
986.841
977.324
967.815
958.336
948.916
939.569
930.316
921.171
912.137
903.443
893.679
11461.8
1789.59
728.242
486.128
401.07
364.353
346.542
336.918
332.158
330.605
330.774
333.301
337.435
342.751
349.051
356.052
363.975
372.673
381.419
390.358
399.823
409.815
420.445
431.484
442.834
454.677
467.064
480.02
493.6
507.851
522.813
538.643
555.501
573.488
592.603
612.813
634.138
656.635
680.397
705.598
732.184
759.946
788.583
817.777
847.253
877.052
907.447
938.241
968.786
998.769
1027.84
1055.46
1081.69
1106.53
1129.98
1151.98
1172.52
1191.61
1209.3
1225.65
1240.73
1254.64
1267.45
1279.25
1290.13
1300.18
1309.54
1318.21
1326.27
1333.76
1340.77
1347.46
1354.06
1360.52
1366.72
1372.52
1377.88
1382.61
1386.83
1390.74
1394.44
1398.35
1402.38
1405.82
1408.61
1410.98
1413.05
1414.92
1416.62
1418.2
1419.68
1421.08
1422.39
1423.62
1424.78
1425.87
1426.9
1427.87
1428.77
1429.6
1430.34
1430.97
1431.46
1431.8
1431.97
1431.97
1431.85
1431.29
1430.61
1429.71
1428.57
1427.18
1425.54
1423.63
1421.45
1419.01
1416.31
1413.34
1410.11
1406.6