/*--------------------------------*- C++ -*----------------------------------*\
  =========                 |
  \\      /  F ield         | OpenFOAM: The Open Source CFD Toolbox
   \\    /   O peration     | Website:  https://openfoam.org
    \\  /    A nd           | Version:  13
     \\/     M anipulation  |
\*---------------------------------------------------------------------------*/
FoamFile
{
    format      ascii;
    class       volScalarField;
    location    "1800";
    object      p;
}
// * * * * * * * * * * * * * * * * * * * * * * * * * * * * * * * * * * * * * //

dimensions      [0 2 -2 0 0 0 0];

internalField   nonuniform List<scalar> 
12225
(
-4.07241
-4.93103
-5.32916
-5.46657
-5.6096
-5.7708
-5.91674
-6.03983
-6.16141
-6.27546
-6.38
-6.46842
-6.54549
-6.61932
-6.68666
-6.74874
-6.8158
-6.90332
-4.34262
-4.96971
-5.30495
-5.43835
-5.58082
-5.74424
-5.89422
-6.01651
-6.13555
-6.24263
-6.34067
-6.43466
-6.51941
-6.59212
-6.65846
-6.71976
-6.77734
-6.82166
-4.52746
-4.96154
-5.28609
-5.44957
-5.59579
-5.75455
-5.89976
-6.02287
-6.13294
-6.23663
-6.3319
-6.42275
-6.50426
-6.57463
-6.63795
-6.69477
-6.74359
-6.7781
-4.66829
-4.97872
-5.29104
-5.46698
-5.60469
-5.75081
-5.88953
-6.01523
-6.11867
-6.21268
-6.30727
-6.39704
-6.47767
-6.54815
-6.61085
-6.66622
-6.71366
-6.74941
-4.79383
-5.03137
-5.30728
-5.48113
-5.61244
-5.75014
-5.88603
-6.00709
-6.10628
-6.20134
-6.29556
-6.38386
-6.46299
-6.53234
-6.59334
-6.64664
-6.6923
-6.72837
-4.90567
-5.08634
-5.32511
-5.49409
-5.62287
-5.75396
-5.88391
-5.99971
-6.09889
-6.19331
-6.28449
-6.36922
-6.4452
-6.51202
-6.57065
-6.6218
-6.66573
-6.70146
-5.00688
-5.14428
-5.34907
-5.51047
-5.63627
-5.76034
-5.88332
-5.99463
-6.09333
-6.18561
-6.27328
-6.35451
-6.42758
-6.49215
-6.54892
-6.5985
-6.64126
-6.67683
-5.1003
-5.20434
-5.37777
-5.52852
-5.6502
-5.76801
-5.88454
-5.99159
-6.0883
-6.17792
-6.26214
-6.33997
-6.41013
-6.47237
-6.52721
-6.57521
-6.6168
-6.65199
-5.18522
-5.26395
-5.40972
-5.5484
-5.66531
-5.77723
-5.8874
-5.99019
-6.08396
-6.17055
-6.25134
-6.32584
-6.39318
-6.45319
-6.50624
-6.55282
-6.59342
-6.62823
-5.26076
-5.32186
-5.44413
-5.57017
-5.68125
-5.78715
-5.89117
-5.98926
-6.07943
-6.16271
-6.24014
-6.31147
-6.37614
-6.43401
-6.48537
-6.53064
-6.57027
-6.60452
-5.32857
-5.37714
-5.47948
-5.59282
-5.69713
-5.79682
-5.8947
-5.98781
-6.07412
-6.15402
-6.22819
-6.29654
-6.35868
-6.41454
-6.4643
-6.50833
-6.54707
-6.58081
-5.3852
-5.42524
-5.51222
-5.61413
-5.71163
-5.8055
-5.89773
-5.98612
-6.06873
-6.14547
-6.21674
-6.28249
-6.34242
-6.3965
-6.44487
-6.48783
-6.52582
-6.55906
-5.43656
-5.47011
-5.54417
-5.63532
-5.72587
-5.81396
-5.90067
-5.98438
-6.06327
-6.13687
-6.20533
-6.26854
-6.32636
-6.3787
-6.42573
-6.46768
-6.50493
-6.53773
-5.4892
-5.51704
-5.57906
-5.65902
-5.74171
-5.82334
-5.90404
-5.98255
-6.05719
-6.12723
-6.19253
-6.25297
-6.30842
-6.35885
-6.40437
-6.44519
-6.48165
-6.51393
-5.54111
-5.56397
-5.61537
-5.68444
-5.75867
-5.8334
-5.90777
-5.9807
-6.05066
-6.11675
-6.17857
-6.23601
-6.2889
-6.33726
-6.38114
-6.42075
-6.45634
-6.48809
-5.58928
-5.60805
-5.65064
-5.70978
-5.77564
-5.84332
-5.91137
-5.97859
-6.04366
-6.10554
-6.16377
-6.21804
-6.26833
-6.31452
-6.35673
-6.39507
-6.42978
-6.46103
-5.6296
-5.64522
-5.68104
-5.732
-5.79035
-5.85152
-5.91366
-5.97553
-6.03586
-6.09366
-6.14833
-6.19961
-6.24733
-6.29146
-6.33203
-6.36915
-6.40302
-6.43379
-5.65594
-5.66952
-5.70091
-5.74628
-5.79911
-5.85524
-5.9127
-5.97025
-6.02666
-6.08102
-6.13268
-6.18136
-6.22687
-6.26919
-6.30833
-6.34439
-6.37752
-6.40789
-5.65868
-5.67163
-5.70169
-5.74524
-5.79597
-5.84986
-5.90504
-5.96034
-6.0146
-6.06693
-6.11674
-6.16376
-6.20784
-6.24896
-6.28715
-6.32251
-6.35518
-6.38536
-5.62905
-5.64367
-5.67716
-5.72455
-5.77828
-5.83425
-5.8909
-5.94731
-6.00225
-6.05493
-6.1048
-6.15175
-6.19564
-6.23655
-6.2745
-6.30967
-6.34221
-6.37233
-5.58446
-5.60215
-5.64217
-5.69672
-5.75608
-5.81615
-5.87624
-5.93544
-5.99255
-6.04667
-6.09758
-6.1452
-6.18956
-6.2307
-6.26879
-6.30402
-6.33657
-6.36673
-5.52622
-5.54919
-5.59977
-5.6648
-5.73153
-5.79702
-5.86181
-5.925
-5.98506
-6.04129
-6.0937
-6.14237
-6.1874
-6.22895
-6.26726
-6.30259
-6.33519
-6.36538
-5.4565
-5.48801
-5.55408
-5.6322
-5.70691
-5.77843
-5.84882
-5.9166
-5.97996
-6.03856
-6.0927
-6.14259
-6.18838
-6.23033
-6.26878
-6.30412
-6.33665
-6.36674
-5.37612
-5.42143
-5.50904
-5.60146
-5.68354
-5.7615
-5.8382
-5.91075
-5.9773
-6.03819
-6.09407
-6.14517
-6.19167
-6.23395
-6.27248
-6.30775
-6.34015
-6.37013
-5.28497
-5.35211
-5.46842
-5.57442
-5.662
-5.74651
-5.82997
-5.90724
-5.97676
-6.03978
-6.09723
-6.14933
-6.19632
-6.23868
-6.27704
-6.31199
-6.34401
-6.37364
-5.18294
-5.28233
-5.43371
-5.55122
-5.64254
-5.7333
-5.82304
-5.9045
-5.97679
-6.04198
-6.10111
-6.15433
-6.20194
-6.24452
-6.28278
-6.31744
-6.34913
-6.37867
-5.07031
-5.21767
-5.40259
-5.52698
-5.62312
-5.72156
-5.81714
-5.90188
-5.97629
-6.04314
-6.10344
-6.15734
-6.20523
-6.24777
-6.2858
-6.32002
-6.35107
-6.38022
-4.93723
-5.17414
-5.38196
-5.50001
-5.6012
-5.71082
-5.81454
-5.9042
-5.98224
-6.05193
-6.11418
-6.16916
-6.2174
-6.25968
-6.29725
-6.33094
-6.36135
-6.39042
-4.73848
-5.14612
-5.38566
-5.48607
-5.58334
-5.69797
-5.80553
-5.89738
-5.97749
-6.04935
-6.11354
-6.16998
-6.21908
-6.26157
-6.29843
-6.33083
-6.36005
-6.38684
-4.48077
-5.0779
-5.38301
-5.494
-5.59879
-5.72107
-5.83299
-5.92643
-6.00697
-6.07894
-6.1431
-6.19929
-6.24785
-6.28935
-6.32367
-6.35216
-6.37758
-6.39842
-7.30018
-7.30032
-7.30039
-7.3004
-7.30009
-7.29885
-7.29628
-7.29285
-7.28951
-7.28719
-7.28687
-7.28886
-7.29275
-7.29786
-7.30344
-7.30885
-7.3135
-7.31698
-7.31916
-7.32034
-7.32074
-7.32057
-7.32001
-7.31933
-7.31874
-7.31837
-7.3182
-7.31811
-7.31794
-7.31762
-7.31714
-7.31654
-7.31578
-7.31477
-7.3135
-7.31212
-7.31105
-7.31099
-7.31234
-7.31479
-7.31751
-7.31972
-7.32128
-7.32259
-7.32412
-7.32641
-7.32983
-7.33373
-7.33705
-7.33962
-7.34386
-7.35366
-7.37251
-7.40023
-7.43581
-7.47909
-7.53028
-7.5887
-7.65262
-7.72007
-7.7892
-7.85845
-7.92623
-7.99095
-8.05212
-8.10928
-8.16194
-8.20995
-8.25335
-8.29214
-8.32648
-8.35642
-8.38213
-8.40365
-8.42109
-8.43447
-8.44386
-8.44927
-8.45072
-8.44821
-8.44174
-8.43129
-8.41685
-8.39839
-8.37584
-8.34918
-8.3183
-8.28316
-8.24365
-8.1997
-8.15125
-8.09821
-8.04045
-7.97786
-7.91033
-7.83776
-7.76005
-7.67713
-7.58893
-7.49543
-7.39657
-7.29211
-7.18166
-7.06507
-6.94236
-6.81356
-6.67863
-6.5376
-6.39046
-6.23723
-6.07797
-5.91273
-5.7416
-5.56468
-5.3821
-5.194
-5.00059
-4.80203
-4.59854
-4.39029
-4.17747
-3.96032
-3.73911
-3.51411
-3.2856
-3.05383
-2.81907
-2.58158
-2.34162
-2.09945
-1.85531
-1.60945
-1.36209
-1.11346
-0.863752
-0.613216
-0.362052
-0.110464
0.141581
0.394165
0.647151
0.900306
1.15351
1.4067
1.65982
1.91281
2.16564
2.41825
2.67061
2.92266
3.17436
3.42565
3.67644
3.92665
4.17617
4.42487
4.67265
4.91936
5.16485
5.40896
5.65153
5.89234
6.13122
6.36792
6.60222
6.83385
7.06256
7.28806
7.5101
7.72838
7.94265
8.15262
8.35803
8.55862
8.75413
8.94434
9.12936
9.30907
9.48653
9.65271
-7.30143
-7.30165
-7.30202
-7.3024
-7.30236
-7.3015
-7.29952
-7.29693
-7.2949
-7.29441
-7.29581
-7.29902
-7.30357
-7.30889
-7.31435
-7.31947
-7.32385
-7.32728
-7.32955
-7.33047
-7.33006
-7.32861
-7.3265
-7.32417
-7.322
-7.32028
-7.31908
-7.31828
-7.31763
-7.31703
-7.31645
-7.31593
-7.31537
-7.31468
-7.31378
-7.31287
-7.31254
-7.31345
-7.31568
-7.31859
-7.32113
-7.3225
-7.32273
-7.32244
-7.32168
-7.32075
-7.32112
-7.32509
-7.33235
-7.33918
-7.34628
-7.35772
-7.37487
-7.39912
-7.43301
-7.47793
-7.53287
-7.59534
-7.66291
-7.73321
-7.80419
-7.8738
-7.94053
-8.00409
-8.0637
-8.1185
-8.16869
-8.21435
-8.2556
-8.29255
-8.32531
-8.35398
-8.37863
-8.39933
-8.41612
-8.42903
-8.43807
-8.44325
-8.44457
-8.44201
-8.43556
-8.42519
-8.41088
-8.3926
-8.3703
-8.34394
-8.31343
-8.27871
-8.23968
-8.19629
-8.14847
-8.09612
-8.03913
-7.97737
-7.91074
-7.83911
-7.76237
-7.6804
-7.59307
-7.5002
-7.40163
-7.29727
-7.18717
-7.07131
-6.94952
-6.82171
-6.68781
-6.54781
-6.4017
-6.24951
-6.09128
-5.92705
-5.75691
-5.58097
-5.39933
-5.21216
-5.01962
-4.82192
-4.61924
-4.41175
-4.19966
-3.98321
-3.76265
-3.53825
-3.3103
-3.07905
-2.84476
-2.60771
-2.36814
-2.12633
-1.88252
-1.63694
-1.38983
-1.14139
-0.891829
-0.641301
-0.389945
-0.137882
0.114661
0.367409
0.620293
0.873325
1.1264
1.37945
1.63243
1.88528
2.13796
2.39042
2.64263
2.89453
3.14608
3.39722
3.64788
3.89796
4.14737
4.39599
4.6437
4.89034
5.1358
5.37989
5.62246
5.86331
6.10225
6.33904
6.57346
6.80525
7.03416
7.25991
7.48223
7.70085
7.9155
8.1259
8.33181
8.53304
8.72936
8.92053
9.10663
9.28699
9.46691
9.63282
-7.30281
-7.30284
-7.30291
-7.303
-7.30302
-7.3029
-7.30284
-7.30338
-7.30504
-7.308
-7.31211
-7.31706
-7.32244
-7.32786
-7.33293
-7.33737
-7.34094
-7.34353
-7.34504
-7.34541
-7.34461
-7.34277
-7.34002
-7.33658
-7.33264
-7.32849
-7.32439
-7.3206
-7.31734
-7.31471
-7.31271
-7.31118
-7.30981
-7.30853
-7.3076
-7.30765
-7.30929
-7.31267
-7.31696
-7.32061
-7.32212
-7.32094
-7.31843
-7.31664
-7.31664
-7.31773
-7.32003
-7.32619
-7.33714
-7.35201
-7.37128
-7.39602
-7.42668
-7.46375
-7.50751
-7.55758
-7.61281
-7.67165
-7.73263
-7.79444
-7.85592
-7.91599
-7.97385
-8.02915
-8.08149
-8.13042
-8.17579
-8.21751
-8.25557
-8.28995
-8.32067
-8.34772
-8.37111
-8.39083
-8.40687
-8.41923
-8.42788
-8.43279
-8.43395
-8.43133
-8.42488
-8.41459
-8.40043
-8.38234
-8.3603
-8.33425
-8.30413
-8.26985
-8.23133
-8.1885
-8.14131
-8.08965
-8.03342
-7.97248
-7.90671
-7.83599
-7.7602
-7.67922
-7.59293
-7.50116
-7.40377
-7.30065
-7.19178
-7.07712
-6.95655
-6.82996
-6.69731
-6.55857
-6.41373
-6.2628
-6.10582
-5.94284
-5.77394
-5.59921
-5.41876
-5.23275
-5.04134
-4.84474
-4.6431
-4.43663
-4.2255
-4.00998
-3.7903
-3.56676
-3.3396
-3.10909
-2.87551
-2.63911
-2.40016
-2.15892
-1.91564
-1.67055
-1.4239
-1.1759
-0.926759
-0.676659
-0.425752
-0.17415
0.077969
0.330362
0.582937
0.835624
1.08835
1.34106
1.59369
1.8462
2.09853
2.35064
2.6025
2.85405
3.10525
3.35605
3.60638
3.85615
4.10526
4.3536
4.60105
4.84746
5.0927
5.33661
5.57901
5.81971
6.05852
6.29522
6.52958
6.76134
6.99025
7.21604
7.43843
7.65714
7.87193
8.08253
8.28865
8.49006
8.68664
8.87824
9.06527
9.24645
9.42933
9.59118
-7.30394
-7.3037
-7.30337
-7.3033
-7.30417
-7.30643
-7.31001
-7.31462
-7.31992
-7.32563
-7.33146
-7.3372
-7.34261
-7.34753
-7.35177
-7.35521
-7.35773
-7.35925
-7.35974
-7.35918
-7.35754
-7.3549
-7.35132
-7.34689
-7.34168
-7.33582
-7.32946
-7.32288
-7.31637
-7.31031
-7.30496
-7.30051
-7.29711
-7.29509
-7.29507
-7.29766
-7.30244
-7.30788
-7.31221
-7.31444
-7.31459
-7.31358
-7.31321
-7.31474
-7.31872
-7.32567
-7.33628
-7.35132
-7.37123
-7.39602
-7.42534
-7.45879
-7.49623
-7.53753
-7.58242
-7.63045
-7.68104
-7.73354
-7.78722
-7.84134
-7.89521
-7.94813
-7.99953
-8.04898
-8.0961
-8.14061
-8.18227
-8.22091
-8.25644
-8.28876
-8.31782
-8.34354
-8.36588
-8.38479
-8.40022
-8.41212
-8.42045
-8.42516
-8.4262
-8.42355
-8.41715
-8.40697
-8.39297
-8.37511
-8.35335
-8.32763
-8.29791
-8.26409
-8.2261
-8.18387
-8.13734
-8.0864
-8.03094
-7.97084
-7.90597
-7.83619
-7.76138
-7.68139
-7.59611
-7.50539
-7.40911
-7.30716
-7.19948
-7.086
-6.96659
-6.84119
-6.70972
-6.57216
-6.4285
-6.27874
-6.12292
-5.96109
-5.79332
-5.6197
-5.44034
-5.25538
-5.065
-4.86938
-4.66868
-4.46311
-4.25285
-4.03815
-3.81927
-3.59648
-3.37003
-3.1402
-2.90725
-2.67144
-2.43305
-2.19234
-1.94955
-1.70493
-1.45872
-1.21112
-0.962366
-0.712637
-0.462105
-0.210912
0.0407911
0.292811
0.54504
0.797379
1.04975
1.3021
1.55437
1.80651
2.05847
2.3102
2.56168
2.81285
3.06367
3.31409
3.56405
3.81347
4.06224
4.31027
4.55742
4.80356
5.04854
5.29221
5.53439
5.77492
6.01357
6.25014
6.48439
6.71608
6.94493
7.1707
7.39309
7.61185
7.8267
8.03741
8.24371
8.4454
8.64235
8.83439
9.02208
9.20354
9.3874
9.54317
-7.30602
-7.30547
-7.30503
-7.30609
-7.30971
-7.31545
-7.3223
-7.32954
-7.3367
-7.34349
-7.34974
-7.35541
-7.36041
-7.3647
-7.36817
-7.37076
-7.37238
-7.37301
-7.37259
-7.37111
-7.36856
-7.36498
-7.3604
-7.35486
-7.34844
-7.34118
-7.33315
-7.32452
-7.31554
-7.30663
-7.29834
-7.29132
-7.28638
-7.28448
-7.28614
-7.29035
-7.29524
-7.2997
-7.30325
-7.3059
-7.30826
-7.31131
-7.31623
-7.32395
-7.33537
-7.35112
-7.37126
-7.39529
-7.4227
-7.45321
-7.48646
-7.52224
-7.56054
-7.60129
-7.64438
-7.68952
-7.73633
-7.78433
-7.83303
-7.88188
-7.9304
-7.97812
-8.02462
-8.06954
-8.11257
-8.15345
-8.19195
-8.22789
-8.26113
-8.29154
-8.31901
-8.34344
-8.36472
-8.38278
-8.39753
-8.40889
-8.4168
-8.4212
-8.42203
-8.41923
-8.41277
-8.40259
-8.38865
-8.37091
-8.34933
-8.32386
-8.29445
-8.26101
-8.22348
-8.18176
-8.13582
-8.08553
-8.03079
-7.97145
-7.90739
-7.83848
-7.76458
-7.68554
-7.60124
-7.51153
-7.41628
-7.3154
-7.20877
-7.09631
-6.97791
-6.85351
-6.72303
-6.58646
-6.44376
-6.29495
-6.14006
-5.97913
-5.81224
-5.63946
-5.46092
-5.27677
-5.08716
-4.89225
-4.69225
-4.48731
-4.27768
-4.06357
-3.84527
-3.62301
-3.39707
-3.16771
-2.93521
-2.69982
-2.46184
-2.22151
-1.97909
-1.73483
-1.48895
-1.24169
-0.993246
-0.743826
-0.493598
-0.242723
0.00863432
0.260319
0.512193
0.764187
1.0162
1.26819
1.52009
1.77185
2.02342
2.27478
2.52587
2.77666
3.0271
3.27716
3.52677
3.77585
4.02431
4.27204
4.51892
4.7648
5.00957
5.25304
5.49507
5.73545
5.97401
6.21049
6.4447
6.67636
6.90524
7.13105
7.35354
7.57242
7.78745
7.99836
8.20492
8.40691
8.6042
8.79652
8.98444
9.16547
9.3491
9.49816
-7.30997
-7.30905
-7.30931
-7.31315
-7.31997
-7.32801
-7.33626
-7.34424
-7.35165
-7.3584
-7.36446
-7.36983
-7.37443
-7.37823
-7.38114
-7.38311
-7.38407
-7.38401
-7.38289
-7.3807
-7.37744
-7.37313
-7.3678
-7.36144
-7.35405
-7.34568
-7.33644
-7.3265
-7.3161
-7.30575
-7.29626
-7.28856
-7.2838
-7.28251
-7.28384
-7.28632
-7.28928
-7.2929
-7.2975
-7.30335
-7.31044
-7.3193
-7.33115
-7.34681
-7.36629
-7.38924
-7.4152
-7.44383
-7.47476
-7.50776
-7.54262
-7.57924
-7.61756
-7.65748
-7.69886
-7.74152
-7.78517
-7.8295
-7.87416
-7.91881
-7.96309
-8.00666
-8.04923
-8.0905
-8.13019
-8.16807
-8.20394
-8.23759
-8.26886
-8.2976
-8.32365
-8.34688
-8.36718
-8.38441
-8.39847
-8.40927
-8.41672
-8.42074
-8.42126
-8.41824
-8.41161
-8.40133
-8.38736
-8.36965
-8.34816
-8.32285
-8.29367
-8.26055
-8.22338
-8.18214
-8.13671
-8.08702
-8.03292
-7.97429
-7.91099
-7.84287
-7.7698
-7.69162
-7.60821
-7.5194
-7.42508
-7.32511
-7.21938
-7.10778
-6.99022
-6.86662
-6.73693
-6.60111
-6.45915
-6.31104
-6.15682
-5.99654
-5.83025
-5.65806
-5.48007
-5.29643
-5.10731
-4.91285
-4.71325
-4.5087
-4.29942
-4.08566
-3.86767
-3.64571
-3.42005
-3.19095
-2.95869
-2.72355
-2.48579
-2.24569
-2.00351
-1.75947
-1.51383
-1.26681
-1.01861
-0.769446
-0.519487
-0.268891
-0.0178414
0.23351
0.485039
0.736669
0.988311
1.23992
1.49142
1.74278
1.99394
2.24489
2.49557
2.74595
2.996
3.24568
3.49493
3.74367
3.99182
4.23925
4.48586
4.73151
4.97608
5.21938
5.46127
5.70154
5.94002
6.17647
6.41067
6.64237
6.87132
7.09724
7.31987
7.53892
7.75415
7.96529
8.17211
8.37436
8.57187
8.76431
8.95217
9.13245
9.31559
9.45805
-7.31523
-7.31456
-7.31672
-7.32328
-7.33166
-7.34015
-7.34829
-7.35595
-7.36305
-7.36954
-7.37536
-7.38046
-7.38475
-7.38819
-7.39069
-7.39223
-7.39273
-7.3922
-7.3906
-7.38794
-7.38421
-7.37945
-7.3736
-7.36661
-7.3585
-7.34943
-7.33957
-7.32916
-7.31854
-7.30836
-7.29952
-7.29301
-7.28906
-7.28697
-7.28616
-7.28676
-7.28927
-7.29416
-7.30123
-7.31051
-7.32258
-7.33792
-7.35649
-7.37809
-7.40246
-7.4293
-7.45826
-7.4891
-7.52165
-7.55576
-7.59125
-7.62799
-7.66589
-7.70483
-7.74467
-7.78527
-7.82644
-7.86795
-7.90958
-7.95109
-7.99222
-8.03271
-8.07233
-8.11081
-8.14795
-8.18351
-8.2173
-8.24913
-8.27881
-8.30616
-8.33102
-8.35324
-8.37265
-8.38912
-8.40254
-8.41277
-8.41973
-8.42332
-8.42349
-8.42016
-8.41328
-8.40281
-8.38871
-8.37094
-8.34946
-8.32423
-8.2952
-8.2623
-8.22546
-8.1846
-8.13965
-8.0905
-8.037
-7.97903
-7.91643
-7.84906
-7.77675
-7.69936
-7.61675
-7.52875
-7.43523
-7.33603
-7.23106
-7.12016
-7.00328
-6.88031
-6.75122
-6.61596
-6.47452
-6.3269
-6.17312
-6.01324
-5.84731
-5.67544
-5.49775
-5.31438
-5.12548
-4.93122
-4.73178
-4.52737
-4.31821
-4.10456
-3.88666
-3.66479
-3.43919
-3.21017
-2.97797
-2.7429
-2.50523
-2.26522
-2.02314
-1.77923
-1.53373
-1.28687
-1.03887
-0.789918
-0.54019
-0.28987
-0.0391185
0.211889
0.463068
0.714309
0.965563
1.21675
1.46783
1.71874
1.96947
2.21996
2.47021
2.72016
2.96979
3.21907
3.46794
3.71634
3.96416
4.21131
4.45765
4.70307
4.94742
5.19056
5.43232
5.67252
5.91095
6.14741
6.38166
6.61344
6.84249
7.06855
7.29134
7.51059
7.72604
7.93742
8.14447
8.34694
8.54461
8.73707
8.92473
9.10417
9.28686
9.4231
-7.31978
-7.32017
-7.32479
-7.33262
-7.34088
-7.34884
-7.35646
-7.36371
-7.37051
-7.37677
-7.38238
-7.38728
-7.39136
-7.39456
-7.39682
-7.39809
-7.39833
-7.39754
-7.39567
-7.39277
-7.38882
-7.38378
-7.37752
-7.37014
-7.36184
-7.35278
-7.34311
-7.33312
-7.3234
-7.31477
-7.30775
-7.3022
-7.29757
-7.29399
-7.29233
-7.29321
-7.29675
-7.30339
-7.31346
-7.32692
-7.34359
-7.36319
-7.3855
-7.41024
-7.43713
-7.46592
-7.4964
-7.52837
-7.56168
-7.59617
-7.63171
-7.66817
-7.70546
-7.74346
-7.78205
-7.82109
-7.86045
-7.89997
-7.93948
-7.97878
-8.01768
-8.05598
-8.09347
-8.12995
-8.16522
-8.19907
-8.23133
-8.26178
-8.29024
-8.31652
-8.34044
-8.36182
-8.38049
-8.3963
-8.40912
-8.4188
-8.42526
-8.42839
-8.42813
-8.42442
-8.41722
-8.40648
-8.39216
-8.37423
-8.35267
-8.32743
-8.29848
-8.26575
-8.22916
-8.18866
-8.14414
-8.09548
-8.04255
-7.98519
-7.92325
-7.85657
-7.78498
-7.70832
-7.62644
-7.53917
-7.44634
-7.34781
-7.24344
-7.13312
-7.01676
-6.89428
-6.76562
-6.63074
-6.48963
-6.3423
-6.18876
-6.02907
-5.8633
-5.69155
-5.51394
-5.33062
-5.14173
-4.94744
-4.74795
-4.54347
-4.33424
-4.12051
-3.90251
-3.68054
-3.45484
-3.22572
-2.99344
-2.7583
-2.52058
-2.28055
-2.03846
-1.79459
-1.54916
-1.30241
-1.05455
-0.805771
-0.556256
-0.306196
-0.0557552
0.194914
0.44572
0.696568
0.947398
1.19814
1.44876
1.69921
1.94946
2.19948
2.44924
2.69873
2.94791
3.19676
3.44524
3.69328
3.94076
4.18758
4.43363
4.6788
4.92294
5.16592
5.40756
5.64769
5.8861
6.12259
6.3569
6.58878
6.81796
7.04419
7.26716
7.48663
7.70231
7.91394
8.12123
8.3239
8.5217
8.71412
8.90155
9.08016
9.26252
9.3931
-7.32184
-7.32377
-7.3301
-7.33787
-7.3455
-7.35294
-7.36018
-7.36717
-7.37377
-7.37989
-7.38541
-7.39021
-7.39421
-7.39732
-7.39949
-7.40068
-7.40084
-7.39998
-7.39807
-7.39513
-7.3911
-7.3859
-7.37954
-7.37228
-7.36429
-7.35574
-7.34691
-7.33828
-7.3303
-7.32325
-7.31698
-7.31133
-7.30645
-7.30309
-7.30216
-7.30432
-7.3099
-7.31916
-7.33197
-7.34802
-7.36705
-7.38877
-7.41287
-7.4391
-7.46719
-7.49692
-7.52811
-7.56057
-7.59414
-7.62869
-7.66409
-7.70022
-7.73698
-7.77425
-7.81192
-7.84989
-7.88803
-7.9262
-7.96428
-8.0021
-8.0395
-8.07632
-8.11238
-8.14751
-8.18151
-8.2142
-8.2454
-8.2749
-8.30251
-8.32801
-8.35123
-8.37196
-8.39003
-8.40528
-8.41754
-8.4267
-8.43264
-8.43526
-8.43452
-8.43035
-8.42274
-8.41163
-8.39701
-8.37884
-8.35711
-8.33178
-8.30283
-8.2702
-8.23385
-8.19363
-8.14952
-8.10133
-8.04893
-7.99216
-7.93085
-7.86483
-7.79391
-7.71795
-7.63673
-7.55011
-7.45787
-7.3599
-7.25603
-7.14617
-7.0302
-6.90807
-6.77969
-6.64505
-6.50411
-6.3569
-6.20343
-6.04376
-5.87797
-5.70616
-5.52846
-5.345
-5.15594
-4.96145
-4.76175
-4.55703
-4.34758
-4.13359
-3.91536
-3.69312
-3.4672
-3.23785
-3.00538
-2.77006
-2.5322
-2.29206
-2.04991
-1.80602
-1.56061
-1.31393
-1.06617
-0.817532
-0.568224
-0.318418
-0.0682975
0.18203
0.432441
0.682879
0.933256
1.18354
1.43366
1.68362
1.93335
2.18287
2.43213
2.68112
2.92983
3.17823
3.4263
3.67395
3.92108
4.16757
4.41333
4.65824
4.90218
5.14499
5.38653
5.6266
5.86502
6.10156
6.33598
6.56798
6.79732
7.02371
7.24691
7.4666
7.68254
7.89441
8.10195
8.3048
8.50271
8.69506
8.88223
9.06005
9.24216
9.36771
-7.32006
-7.32344
-7.33021
-7.3375
-7.34475
-7.35195
-7.35904
-7.36595
-7.37253
-7.37867
-7.38423
-7.38911
-7.39319
-7.3964
-7.39866
-7.39994
-7.40019
-7.3994
-7.39753
-7.3946
-7.39056
-7.38542
-7.3793
-7.37245
-7.36511
-7.35754
-7.35003
-7.34278
-7.33586
-7.3294
-7.32349
-7.31836
-7.31451
-7.31269
-7.31359
-7.31769
-7.32516
-7.33609
-7.35036
-7.36773
-7.38791
-7.41063
-7.43558
-7.46249
-7.49112
-7.52127
-7.55276
-7.5854
-7.61905
-7.65358
-7.68885
-7.72475
-7.76114
-7.79794
-7.83504
-7.87235
-7.90974
-7.94711
-7.98432
-8.02125
-8.05776
-8.0937
-8.12891
-8.16322
-8.19647
-8.22847
-8.25904
-8.28796
-8.31503
-8.34003
-8.36275
-8.38299
-8.40056
-8.41529
-8.42702
-8.43562
-8.44099
-8.44305
-8.44175
-8.43706
-8.42896
-8.41741
-8.4024
-8.38392
-8.36194
-8.33645
-8.30745
-8.2749
-8.2387
-8.1988
-8.15505
-8.10733
-8.05545
-7.99925
-7.93855
-7.87316
-7.80289
-7.72756
-7.64696
-7.5609
-7.46919
-7.37168
-7.26823
-7.15872
-7.04305
-6.92115
-6.79294
-6.6584
-6.51751
-6.37028
-6.21675
-6.05696
-5.89101
-5.719
-5.54105
-5.35731
-5.16794
-4.97312
-4.77306
-4.568
-4.35817
-4.14382
-3.92523
-3.70265
-3.47639
-3.24673
-3.01398
-2.77842
-2.54036
-2.30007
-2.05782
-1.81386
-1.56845
-1.3218
-1.07412
-0.825619
-0.576509
-0.326975
-0.0771721
0.172787
0.422797
0.672792
0.922701
1.17249
1.4221
1.67151
1.92071
2.16968
2.4184
2.66686
2.91505
3.16297
3.41061
3.65786
3.90461
4.15076
4.39621
4.64085
4.88458
5.12723
5.36867
5.6087
5.84714
6.08376
6.31829
6.55043
6.77994
7.00653
7.22995
7.44989
7.66608
7.87821
8.08598
8.28903
8.48702
8.67929
8.86621
9.04329
9.22519
9.34642
-7.31275
-7.31701
-7.32365
-7.3308
-7.33812
-7.34544
-7.35267
-7.35973
-7.36649
-7.37283
-7.3786
-7.38369
-7.38798
-7.39137
-7.3938
-7.39522
-7.39557
-7.39487
-7.3931
-7.39025
-7.38636
-7.38153
-7.37593
-7.36981
-7.36334
-7.35665
-7.34992
-7.34331
-7.33697
-7.33107
-7.32595
-7.32206
-7.31985
-7.31981
-7.32244
-7.32812
-7.33701
-7.34915
-7.36442
-7.38262
-7.40349
-7.42676
-7.45214
-7.4794
-7.50831
-7.53869
-7.57034
-7.60311
-7.63684
-7.67138
-7.70661
-7.7424
-7.77864
-7.81525
-7.8521
-7.88911
-7.92616
-7.96315
-7.99997
-8.03649
-8.0726
-8.10815
-8.14299
-8.17694
-8.20984
-8.24151
-8.27175
-8.30036
-8.32712
-8.3518
-8.37419
-8.39405
-8.41119
-8.42545
-8.43664
-8.44465
-8.4494
-8.45083
-8.4489
-8.44361
-8.43493
-8.42287
-8.40741
-8.38852
-8.36622
-8.34051
-8.31141
-8.27888
-8.24287
-8.20323
-8.15987
-8.1126
-8.06123
-8.00559
-7.94548
-7.88071
-7.81107
-7.73633
-7.65631
-7.57076
-7.47953
-7.38241
-7.27931
-7.17007
-7.05463
-6.93287
-6.80474
-6.6702
-6.52926
-6.38191
-6.2282
-6.06819
-5.90198
-5.72966
-5.55136
-5.36724
-5.17744
-4.9822
-4.78169
-4.5762
-4.36592
-4.15115
-3.93212
-3.70915
-3.4825
-3.25251
-3.01945
-2.78363
-2.54535
-2.30489
-2.06253
-1.81851
-1.57309
-1.32647
-1.07886
-0.8305
-0.581597
-0.332354
-0.0828852
0.166677
0.416261
0.665777
0.915188
1.16443
1.4135
1.66234
1.91097
2.15936
2.40752
2.65542
2.90307
3.15051
3.39771
3.64456
3.89092
4.13671
4.38184
4.62623
4.86974
5.11226
5.35361
5.59362
5.8321
6.06883
6.30349
6.5358
6.76548
6.99229
7.21593
7.43614
7.65259
7.86499
8.07301
8.27625
8.47431
8.66649
8.85315
9.02956
9.21126
9.32884
-7.2984
-7.30292
-7.30965
-7.31739
-7.32532
-7.33311
-7.3407
-7.34808
-7.35515
-7.36179
-7.36786
-7.37322
-7.37774
-7.38133
-7.38393
-7.38549
-7.38598
-7.38542
-7.38382
-7.38122
-7.37768
-7.37332
-7.36826
-7.36268
-7.35674
-7.3506
-7.34439
-7.3383
-7.33257
-7.32755
-7.32357
-7.321
-7.32023
-7.32174
-7.3259
-7.333
-7.34314
-7.35634
-7.37248
-7.39138
-7.41279
-7.43648
-7.46219
-7.48972
-7.51887
-7.54945
-7.58129
-7.61422
-7.64808
-7.68273
-7.71804
-7.75391
-7.79022
-7.82688
-7.86378
-7.90081
-7.93785
-7.9748
-8.01158
-8.04804
-8.08409
-8.11957
-8.15435
-8.18825
-8.22111
-8.25274
-8.28294
-8.31147
-8.33812
-8.36265
-8.3848
-8.40435
-8.42109
-8.43484
-8.44545
-8.45279
-8.45679
-8.45745
-8.45478
-8.44877
-8.43944
-8.4268
-8.41081
-8.39147
-8.36879
-8.34278
-8.31352
-8.28101
-8.24515
-8.20584
-8.16287
-8.11606
-8.06521
-8.01013
-7.95061
-7.88646
-7.81744
-7.74331
-7.66383
-7.57878
-7.48796
-7.39122
-7.28842
-7.17943
-7.06416
-6.9425
-6.81439
-6.67979
-6.53872
-6.39119
-6.23724
-6.07695
-5.9104
-5.7377
-5.55899
-5.37441
-5.18415
-4.98842
-4.78745
-4.58149
-4.37076
-4.15553
-3.93608
-3.71271
-3.4857
-3.25537
-3.02201
-2.78594
-2.54745
-2.30684
-2.06437
-1.82031
-1.57488
-1.32831
-1.08078
-0.832562
-0.583911
-0.334984
-0.085893
0.16325
0.412362
0.661374
0.910239
1.15892
1.40739
1.65564
1.90366
2.15145
2.399
2.64632
2.89343
3.14039
3.38717
3.6336
3.87954
4.12495
4.36976
4.61388
4.85719
5.09956
5.34083
5.58083
5.81938
6.05624
6.29106
6.52352
6.7534
6.98043
7.20432
7.42479
7.64152
7.8542
8.06248
8.2659
8.46404
8.65613
8.84256
9.01835
9.19982
9.31445
-7.27643
-7.28084
-7.2883
-7.2973
-7.30626
-7.3147
-7.32275
-7.33052
-7.33803
-7.34513
-7.35163
-7.35734
-7.36213
-7.36592
-7.36868
-7.37039
-7.37104
-7.37067
-7.36928
-7.36694
-7.36371
-7.35971
-7.35504
-7.34988
-7.34434
-7.3386
-7.33286
-7.32739
-7.32247
-7.31839
-7.31548
-7.31415
-7.31478
-7.31776
-7.32336
-7.33181
-7.34315
-7.35738
-7.37436
-7.39392
-7.41585
-7.43995
-7.466
-7.49383
-7.52324
-7.55409
-7.58619
-7.61938
-7.65348
-7.68837
-7.72391
-7.76
-7.79653
-7.8334
-7.87049
-7.90771
-7.94496
-7.98212
-8.0191
-8.05577
-8.09201
-8.12768
-8.16264
-8.19674
-8.22979
-8.26159
-8.29194
-8.32059
-8.34727
-8.3717
-8.39359
-8.41271
-8.42889
-8.44198
-8.45181
-8.45826
-8.46132
-8.46105
-8.45751
-8.45074
-8.44075
-8.42753
-8.41104
-8.39127
-8.36819
-8.34188
-8.31245
-8.27996
-8.24432
-8.20528
-8.1627
-8.11633
-8.06599
-8.01148
-7.95258
-7.88908
-7.82071
-7.74722
-7.66829
-7.58375
-7.49334
-7.39698
-7.29448
-7.18575
-7.07063
-6.94906
-6.82094
-6.68627
-6.54504
-6.3973
-6.24308
-6.08247
-5.91557
-5.74247
-5.56332
-5.37827
-5.18756
-4.99136
-4.78995
-4.58352
-4.37238
-4.15673
-3.93692
-3.71316
-3.48583
-3.25519
-3.02158
-2.78528
-2.54663
-2.3059
-2.06338
-1.81931
-1.57393
-1.32746
-1.08009
-0.832111
-0.583795
-0.335251
-0.0866082
0.16205
0.410626
0.659074
0.907336
1.15539
1.40322
1.65083
1.8982
2.14535
2.39228
2.639
2.88555
3.13208
3.37852
3.62455
3.87007
4.11508
4.35957
4.60342
4.84656
5.0888
5.33003
5.57004
5.8087
6.04576
6.28076
6.51339
6.74347
6.97073
7.19488
7.41562
7.63263
7.84559
8.05414
8.25775
8.45595
8.64795
8.83415
9.00939
9.19058
9.30292
-7.2474
-7.25204
-7.26081
-7.27151
-7.28167
-7.29082
-7.29949
-7.30791
-7.31603
-7.32368
-7.33072
-7.33688
-7.34199
-7.34594
-7.34877
-7.35056
-7.35133
-7.35108
-7.34984
-7.34767
-7.34463
-7.34085
-7.33643
-7.33151
-7.32627
-7.32093
-7.3157
-7.31087
-7.3067
-7.30354
-7.30176
-7.30172
-7.30375
-7.30817
-7.31518
-7.32494
-7.33743
-7.35265
-7.37044
-7.39068
-7.41317
-7.43774
-7.46418
-7.49234
-7.52206
-7.55319
-7.58554
-7.61896
-7.65332
-7.68847
-7.72429
-7.76067
-7.79751
-7.83468
-7.87209
-7.90963
-7.94721
-7.98472
-8.02206
-8.05908
-8.09568
-8.13169
-8.16698
-8.20137
-8.23468
-8.26669
-8.29717
-8.32587
-8.35247
-8.37663
-8.39803
-8.41646
-8.43182
-8.44402
-8.45285
-8.45816
-8.46001
-8.45863
-8.45419
-8.44673
-8.43625
-8.42265
-8.40586
-8.38582
-8.36252
-8.33599
-8.30647
-8.27408
-8.23859
-8.19985
-8.15754
-8.11153
-8.06164
-8.00766
-7.94939
-7.88657
-7.81889
-7.74603
-7.66768
-7.58359
-7.49361
-7.39759
-7.2954
-7.1869
-7.07195
-6.95042
-6.82226
-6.68746
-6.54604
-6.39806
-6.24358
-6.08267
-5.91541
-5.74191
-5.56232
-5.37684
-5.18569
-4.98908
-4.78725
-4.58043
-4.36888
-4.15285
-3.93264
-3.70853
-3.48085
-3.24989
-3.016
-2.77947
-2.54064
-2.29979
-2.05723
-1.81321
-1.568
-1.32182
-1.0749
-0.827445
-0.579645
-0.331643
-0.0835757
0.16445
0.412358
0.66009
0.90761
1.15489
1.40194
1.64874
1.89531
2.14165
2.3878
2.63374
2.87957
3.12552
3.37149
3.61704
3.86207
4.10664
4.35078
4.59437
4.83731
5.07944
5.32061
5.56064
5.79947
6.03685
6.27212
6.50493
6.73521
6.96271
7.18714
7.40818
7.62549
7.83876
8.04762
8.25144
8.4497
8.64161
8.82759
9.00231
9.18315
9.29385
-7.21361
-7.21907
-7.22962
-7.24239
-7.25395
-7.2639
-7.27309
-7.28208
-7.29094
-7.29934
-7.307
-7.31364
-7.31899
-7.32294
-7.32567
-7.32737
-7.32807
-7.32778
-7.32651
-7.32433
-7.3213
-7.31754
-7.31318
-7.30841
-7.3034
-7.29838
-7.29359
-7.28935
-7.28598
-7.28382
-7.28322
-7.2845
-7.28793
-7.29376
-7.30211
-7.31308
-7.32664
-7.34276
-7.3613
-7.38216
-7.40515
-7.43012
-7.4569
-7.48535
-7.51532
-7.54665
-7.57918
-7.61278
-7.64732
-7.6827
-7.71878
-7.75544
-7.79258
-7.83009
-7.86786
-7.90578
-7.94374
-7.98161
-8.01928
-8.05659
-8.09344
-8.12967
-8.16511
-8.19961
-8.23296
-8.26496
-8.29534
-8.32384
-8.35008
-8.37365
-8.39414
-8.41142
-8.42558
-8.43668
-8.44434
-8.44827
-8.4486
-8.44582
-8.44034
-8.4323
-8.42153
-8.40783
-8.39105
-8.37108
-8.34794
-8.32181
-8.29283
-8.26091
-8.22598
-8.18777
-8.14608
-8.10064
-8.05129
-7.99791
-7.9403
-7.87814
-7.81112
-7.73884
-7.66103
-7.57737
-7.48778
-7.39207
-7.29012
-7.18176
-7.06688
-6.94532
-6.81703
-6.68202
-6.54034
-6.39205
-6.23723
-6.07594
-5.90826
-5.73433
-5.55428
-5.36835
-5.17673
-4.97968
-4.77739
-4.57015
-4.35816
-4.14174
-3.92111
-3.69664
-3.46858
-3.23731
-3.00312
-2.76636
-2.52733
-2.28637
-2.04376
-1.7998
-1.55473
-1.30884
-1.06237
-0.815467
-0.568199
-0.320766
-0.073316
0.17403
0.421208
0.668157
0.914854
1.16128
1.40743
1.65331
1.89894
2.14434
2.38952
2.63448
2.87925
3.12386
3.36836
3.61274
3.85694
4.10091
4.34453
4.58771
4.83031
5.07217
5.31312
5.553
5.79182
6.0294
6.26488
6.49785
6.72833
6.95608
7.18078
7.40213
7.61975
7.8334
8.04266
8.24674
8.44505
8.63687
8.82265
8.99688
9.17732
9.28701
-7.17744
-7.18399
-7.19675
-7.21181
-7.22441
-7.2348
-7.24478
-7.25477
-7.26444
-7.27341
-7.28148
-7.28836
-7.29378
-7.29765
-7.30022
-7.30169
-7.30217
-7.30165
-7.30017
-7.29779
-7.29459
-7.29072
-7.2863
-7.28153
-7.27663
-7.27187
-7.26751
-7.26388
-7.2613
-7.26011
-7.26059
-7.26307
-7.2677
-7.2747
-7.28413
-7.29607
-7.31045
-7.32724
-7.34631
-7.36756
-7.39084
-7.41603
-7.44299
-7.4716
-7.50168
-7.53311
-7.56573
-7.59946
-7.63415
-7.66969
-7.70597
-7.74287
-7.78028
-7.81805
-7.85608
-7.89423
-7.93239
-7.97041
-8.00816
-8.04551
-8.08234
-8.11848
-8.15379
-8.1881
-8.22121
-8.2529
-8.28295
-8.31103
-8.33675
-8.35939
-8.37837
-8.3936
-8.40575
-8.41543
-8.42263
-8.42673
-8.42728
-8.42448
-8.41871
-8.41024
-8.399
-8.3849
-8.36779
-8.34758
-8.32442
-8.29861
-8.27003
-8.23853
-8.20397
-8.16628
-8.12519
-8.08038
-8.03171
-7.97906
-7.92218
-7.86075
-7.79441
-7.72281
-7.64559
-7.56252
-7.47342
-7.37815
-7.27652
-7.16841
-7.05366
-6.93216
-6.80386
-6.66877
-6.52695
-6.37846
-6.22338
-6.0618
-5.89382
-5.71954
-5.53915