/*--------------------------------*- C++ -*----------------------------------*\
  =========                 |
  \\      /  F ield         | OpenFOAM: The Open Source CFD Toolbox
   \\    /   O peration     | Website:  https://openfoam.org
    \\  /    A nd           | Version:  13
     \\/     M anipulation  |
\*---------------------------------------------------------------------------*/
FoamFile
{
    format      ascii;
    class       surfaceScalarField;
    location    "1800";
    object      phi;
}
// * * * * * * * * * * * * * * * * * * * * * * * * * * * * * * * * * * * * * //

dimensions      [0 3 -1 0 0 0 0];

internalField   nonuniform List<scalar> 
24170
(
3.04265e-06
1.45727e-07
2.88872e-06
1.53876e-07
2.73676e-06
1.52054e-07
2.59651e-06
1.4039e-07
2.473e-06
1.23536e-07
2.36631e-06
1.06797e-07
2.27844e-06
8.7818e-08
2.20383e-06
7.46233e-08
2.14068e-06
6.31532e-08
2.09204e-06
4.86844e-08
2.05536e-06
3.66468e-08
2.02675e-06
2.86295e-08
2.00306e-06
2.36783e-08
1.98351e-06
1.95704e-08
1.96953e-06
1.39745e-08
1.95926e-06
1.02872e-08
1.95484e-06
4.46057e-09
-3.56732e-09
1.95845e-06
3.4904e-06
7.25442e-08
3.53635e-06
1.07737e-07
3.56272e-06
1.25619e-07
3.57059e-06
1.32518e-07
3.56341e-06
1.30649e-07
3.54722e-06
1.23037e-07
3.52626e-06
1.08716e-07
3.50129e-06
9.96073e-08
3.47261e-06
9.18285e-08
3.44103e-06
8.02903e-08
3.40655e-06
7.11128e-08
3.37166e-06
6.35318e-08
3.33872e-06
5.66132e-08
3.30757e-06
5.07321e-08
3.27677e-06
4.47888e-08
3.24706e-06
4.00139e-08
3.21946e-06
3.21073e-08
2.39736e-08
3.19195e-06
3.68027e-06
5.47724e-08
3.69289e-06
9.51191e-08
3.70986e-06
1.08826e-07
3.72818e-06
1.14349e-07
3.7456e-06
1.13303e-07
3.7616e-06
1.07129e-07
3.77382e-06
9.64853e-08
3.78436e-06
8.90718e-08
3.79339e-06
8.28283e-08
3.79902e-06
7.46966e-08
3.80213e-06
6.80105e-08
3.80332e-06
6.23552e-08
3.80297e-06
5.69658e-08
3.8015e-06
5.22062e-08
3.79889e-06
4.73996e-08
3.79619e-06
4.27209e-08
3.79213e-06
3.61848e-08
2.94674e-08
3.78663e-06
3.9373e-06
4.2832e-08
3.94378e-06
8.83921e-08
3.95208e-06
1.00385e-07
3.96128e-06
1.05064e-07
3.96986e-06
1.04612e-07
3.97773e-06
9.92198e-08
3.984e-06
9.01343e-08
3.99009e-06
8.29538e-08
3.99629e-06
7.66138e-08
4.00151e-06
6.94798e-08
4.00629e-06
6.32222e-08
4.01098e-06
5.76664e-08
4.01546e-06
5.24983e-08
4.01984e-06
4.78306e-08
4.02405e-06
4.32008e-08
4.02823e-06
3.85445e-08
4.03152e-06
3.29207e-08
2.76625e-08
4.03334e-06
4.21614e-06
3.38012e-08
4.22371e-06
8.08567e-08
4.23155e-06
9.27256e-08
4.23947e-06
9.72962e-08
4.24674e-06
9.74224e-08
4.25295e-06
9.30871e-08
4.25754e-06
8.55523e-08
4.26162e-06
7.88784e-08
4.2656e-06
7.26709e-08
4.2689e-06
6.62135e-08
4.27184e-06
6.02914e-08
4.27467e-06
5.48535e-08
4.27738e-06
4.97956e-08
4.28009e-06
4.51256e-08
4.28277e-06
4.05149e-08
4.28546e-06
3.58623e-08
4.28761e-06
3.07709e-08
2.61389e-08
4.28912e-06
4.51519e-06
2.76754e-08
4.52375e-06
7.20377e-08
4.53177e-06
8.45638e-08
4.53951e-06
8.94181e-08
4.54673e-06
9.00858e-08
4.55289e-06
8.68455e-08
4.55754e-06
8.08222e-08
4.56158e-06
7.47892e-08
4.56534e-06
6.88938e-08
4.56855e-06
6.29985e-08
4.57139e-06
5.74487e-08
4.57403e-06
5.22151e-08
4.57654e-06
4.72917e-08
4.579e-06
4.2666e-08
4.58139e-06
3.81321e-08
4.58366e-06
3.35952e-08
4.58551e-06
2.89377e-08
2.47663e-08
4.58691e-06
4.83687e-06
2.35045e-08
4.8457e-06
6.32623e-08
4.85382e-06
7.66045e-08
4.86145e-06
8.19072e-08
4.86857e-06
8.3043e-08
4.87476e-06
8.07069e-08
4.87973e-06
7.58632e-08
4.88404e-06
7.04855e-08
4.88792e-06
6.50463e-08
4.89131e-06
5.96229e-08
4.89437e-06
5.44081e-08
4.89718e-06
4.94131e-08
4.8998e-06
4.46736e-08
4.90231e-06
4.01569e-08
4.90469e-06
3.57505e-08
4.90689e-06
3.14016e-08
4.90875e-06
2.71002e-08
2.32011e-08
4.91026e-06
5.18295e-06
2.01171e-08
5.19094e-06
5.51199e-08
5.1989e-06
6.85319e-08
5.20641e-06
7.43027e-08
5.21348e-06
7.58796e-08
5.21978e-06
7.43307e-08
5.22511e-06
7.04744e-08
5.22976e-06
6.58028e-08
5.23388e-06
6.09036e-08
5.23754e-06
5.59597e-08
5.24084e-06
5.11043e-08
5.24386e-06
4.64036e-08
5.24664e-06
4.18978e-08
5.24923e-06
3.75663e-08
5.25165e-06
3.33408e-08
5.25384e-06
2.92155e-08
5.25574e-06
2.51967e-08
2.1585e-08
5.25736e-06
5.55424e-06
1.7193e-08
5.5613e-06
4.81157e-08
5.56882e-06
6.11049e-08
5.57616e-06
6.70533e-08
5.5832e-06
6.88936e-08
5.58964e-06
6.79278e-08
5.59525e-06
6.48704e-08
5.60021e-06
6.08544e-08
5.60464e-06
5.64877e-08
5.60861e-06
5.20039e-08
5.61219e-06
4.75348e-08
5.61545e-06
4.31509e-08
5.61845e-06
3.89081e-08
5.62122e-06
3.48035e-08
5.62375e-06
3.08091e-08
5.62604e-06
2.69339e-08
5.62804e-06
2.32054e-08
1.98001e-08
5.62976e-06
5.95221e-06
1.47536e-08
5.9586e-06
4.16068e-08
5.96576e-06
5.386e-08
5.97288e-06
5.98424e-08
5.97981e-06
6.18931e-08
5.98631e-06
6.13572e-08
5.99216e-06
5.8975e-08
5.9974e-06
5.55797e-08
6.00213e-06
5.17433e-08
6.00641e-06
4.77213e-08
6.01029e-06
4.36524e-08
6.01383e-06
3.96134e-08
6.01708e-06
3.56705e-08
6.02005e-06
3.18326e-08
6.02276e-06
2.81089e-08
6.0252e-06
2.45089e-08
6.02733e-06
2.10569e-08
1.79214e-08
6.0292e-06
6.3789e-06
1.26376e-08
6.38465e-06
3.58885e-08
6.39146e-06
4.70783e-08
6.39842e-06
5.29165e-08
6.40523e-06
5.50932e-08
6.41172e-06
5.48787e-08
6.41769e-06
5.29907e-08
6.42315e-06
5.01189e-08
6.42813e-06
4.67584e-08
6.43269e-06
4.31723e-08
6.43686e-06
3.94979e-08
6.44067e-06
3.58218e-08
6.44416e-06
3.21831e-08
6.44736e-06
2.86538e-08
6.45026e-06
2.52151e-08
6.45287e-06
2.19169e-08
6.45517e-06
1.87665e-08
1.58694e-08
6.45718e-06
5.74246e-06
1.10251e-08
5.74678e-06
3.15184e-08
5.75221e-06
4.1615e-08
5.75792e-06
4.71828e-08
5.76359e-06
4.94054e-08
5.76904e-06
4.94066e-08
5.77414e-06
4.78626e-08
5.77888e-06
4.53725e-08
5.78325e-06
4.23804e-08
5.78729e-06
3.91451e-08
5.791e-06
3.58038e-08
5.79441e-06
3.24029e-08
5.79755e-06
2.90812e-08
5.8004e-06
2.57864e-08
5.803e-06
2.26387e-08
5.80534e-06
1.95799e-08
5.80741e-06
1.66857e-08
1.40172e-08
5.80923e-06
6.99985e-06
9.31163e-09
7.00436e-06
2.69977e-08
7.01023e-06
3.57481e-08
7.01655e-06
4.08448e-08
7.02294e-06
4.30129e-08
7.02915e-06
4.31747e-08
7.03503e-06
4.19607e-08
7.04054e-06
3.98492e-08
7.04568e-06
3.72475e-08
7.05045e-06
3.43868e-08
7.05485e-06
3.13804e-08
7.05892e-06
2.83541e-08
7.06265e-06
2.53185e-08
7.0661e-06
2.23797e-08
7.06921e-06
1.95017e-08
7.07204e-06
1.67733e-08
7.07453e-06
1.41474e-08
1.17825e-08
7.07676e-06
8.5326e-06
7.56866e-09
8.53727e-06
2.23263e-08
8.54348e-06
2.954e-08
8.55037e-06
3.39761e-08
8.55745e-06
3.59345e-08
8.56444e-06
3.62004e-08
8.57114e-06
3.52445e-08
8.57748e-06
3.35196e-08
8.58344e-06
3.12957e-08
8.58899e-06
2.88313e-08
8.59415e-06
2.62034e-08
8.59892e-06
2.3555e-08
8.60335e-06
2.08964e-08
8.6074e-06
1.8312e-08
8.61112e-06
1.58e-08
8.61447e-06
1.34048e-08
8.61748e-06
1.1138e-08
9.06671e-09
8.62013e-06
1.0401e-05
5.79623e-09
1.04058e-05
1.75289e-08
1.04123e-05
2.30505e-08
1.04197e-05
2.6585e-08
1.04274e-05
2.82243e-08
1.04352e-05
2.84406e-08
1.04428e-05
2.77204e-08
1.045e-05
2.62948e-08
1.04568e-05
2.44895e-08
1.04632e-05
2.23871e-08
1.04692e-05
2.02208e-08
1.04748e-05
1.79473e-08
1.04799e-05
1.57517e-08
1.04847e-05
1.35449e-08
1.0489e-05
1.14698e-08
1.0493e-05
9.44839e-09
1.04965e-05
7.59051e-09
5.87999e-09
1.04997e-05
1.26786e-05
4.03457e-09
1.26835e-05
1.26046e-08
1.26902e-05
1.62876e-08
1.26981e-05
1.8728e-08
1.27065e-05
1.98221e-08
1.27151e-05
1.99125e-08
1.27235e-05
1.92751e-08
1.27318e-05
1.81539e-08
1.27395e-05
1.66801e-08
1.27469e-05
1.50436e-08
1.27537e-05
1.32758e-08
1.27602e-05
1.15227e-08
1.27662e-05
9.74411e-09
1.27717e-05
8.05093e-09
1.27768e-05
6.39208e-09
1.27814e-05
4.85876e-09
1.27856e-05
3.39817e-09
2.12415e-09
1.27894e-05
1.54549e-05
2.25627e-09
1.546e-05
7.51709e-09
1.54671e-05
9.1904e-09
1.54756e-05
1.0298e-08
1.54847e-05
1.06737e-08
1.54942e-05
1.04658e-08
1.55036e-05
9.83936e-09
1.55129e-05
8.92527e-09
1.55217e-05
7.81187e-09
1.55301e-05
6.59512e-09
1.55381e-05
5.32813e-09
1.55455e-05
4.06374e-09
1.55525e-05
2.81969e-09
1.55589e-05
1.62729e-09
1.55648e-05
4.94722e-10
1.55702e-05
-5.56811e-10
1.55752e-05
-1.52496e-09
-2.36894e-09
1.55797e-05
1.88395e-05
4.04226e-10
1.88449e-05
2.06901e-09
1.88526e-05
1.48585e-09
1.88619e-05
1.02774e-09
1.8872e-05
4.89627e-10
1.88826e-05
-1.51767e-10
1.88933e-05
-8.61135e-10
1.89038e-05
-1.61226e-09
1.89141e-05
-2.38067e-09
1.89237e-05
-3.14538e-09
1.8933e-05
-3.88843e-09
1.89416e-05
-4.5993e-09
1.89497e-05
-5.26798e-09
1.89572e-05
-5.88894e-09
1.89642e-05
-6.45469e-09
1.89706e-05
-6.96176e-09
1.89765e-05
-7.40541e-09
-7.76474e-09
1.89819e-05
2.29655e-05
-1.71271e-09
2.29717e-05
-4.25118e-09
2.29807e-05
-7.5202e-09
2.29915e-05
-9.80876e-09
2.30034e-05
-1.14441e-08
2.30158e-05
-1.25981e-08
2.30284e-05
-1.34482e-08
2.30408e-05
-1.40102e-08
2.30528e-05
-1.44081e-08
2.30643e-05
-1.46387e-08
2.30752e-05
-1.47905e-08
2.30854e-05
-1.48472e-08
2.30951e-05
-1.48618e-08
2.3104e-05
-1.48164e-08
2.31123e-05
-1.47438e-08
2.31199e-05
-1.46283e-08
2.31271e-05
-1.44885e-08
-1.42986e-08
2.31336e-05
1.68124e-05
-3.45426e-09
1.68175e-05
-9.34218e-09
1.68246e-05
-1.46809e-08
1.6833e-05
-1.8286e-08
1.68422e-05
-2.05816e-08
1.68516e-05
-2.20861e-08
1.68611e-05
-2.29e-08
1.68703e-05
-2.33152e-08
1.68793e-05
-2.3319e-08
1.68877e-05
-2.31643e-08
1.68958e-05
-2.27992e-08
1.69033e-05
-2.23926e-08
1.69104e-05
-2.18755e-08
1.69168e-05
-2.1368e-08
1.6923e-05
-2.0803e-08
1.69286e-05
-2.02631e-08
1.69338e-05
-1.96892e-08
-1.91295e-08
1.69386e-05
1.46364e-05
-5.29305e-09
1.46416e-05
-1.45715e-08
1.46488e-05
-2.18731e-08
1.4657e-05
-2.64876e-08
1.46656e-05
-2.93004e-08
1.46744e-05
-3.09186e-08
1.46831e-05
-3.16887e-08
1.46916e-05
-3.17627e-08
1.46997e-05
-3.14259e-08
1.47073e-05
-3.07763e-08
1.47145e-05
-2.99755e-08
1.47212e-05
-2.90531e-08
1.47274e-05
-2.8096e-08
1.47332e-05
-2.71111e-08
1.47385e-05
-2.61452e-08
1.47434e-05
-2.51874e-08
1.4748e-05
-2.4266e-08
-2.33479e-08
1.47523e-05
1.27422e-05
-7.39122e-09
1.27479e-05
-2.02695e-08
1.27554e-05
-2.93502e-08
1.27635e-05
-3.46568e-08
1.27719e-05
-3.77242e-08
1.27803e-05
-3.93723e-08
1.27885e-05
-3.99051e-08
1.27964e-05
-3.96289e-08
1.28038e-05
-3.88299e-08
1.28107e-05
-3.77166e-08
1.28172e-05
-3.64314e-08
1.28232e-05
-3.5036e-08
1.28287e-05
-3.36315e-08
1.28338e-05
-3.2218e-08
1.28385e-05
-3.08669e-08
1.28429e-05
-2.95452e-08
1.28469e-05
-2.82984e-08
-2.70844e-08
1.28507e-05
1.10935e-05
-9.94954e-09
1.10999e-05
-2.67304e-08
1.11078e-05
-3.72023e-08
1.1116e-05
-4.28187e-08
1.11242e-05
-4.59608e-08
1.11323e-05
-4.74904e-08
1.114e-05
-4.76856e-08
1.11474e-05
-4.69548e-08
1.11542e-05
-4.56689e-08
1.11605e-05
-4.40724e-08
1.11664e-05
-4.22905e-08
1.11718e-05
-4.0449e-08
1.11768e-05
-3.8586e-08
1.11813e-05
-3.67961e-08
1.11855e-05
-3.50549e-08
1.11894e-05
-3.34226e-08
1.1193e-05
-3.18625e-08
-3.03945e-08
1.11963e-05
9.65849e-06
-1.32256e-08
9.66595e-06
-3.41852e-08
9.67417e-06
-4.54247e-08
9.68231e-06
-5.09579e-08
9.69038e-06
-5.4037e-08
9.69819e-06
-5.53087e-08
9.70556e-06
-5.50577e-08
9.71241e-06
-5.3815e-08
9.71876e-06
-5.20197e-08
9.7246e-06
-4.99197e-08
9.72996e-06
-4.76601e-08
9.73487e-06
-4.53561e-08
9.73934e-06
-4.30872e-08
9.74345e-06
-4.08967e-08
9.74721e-06
-3.88251e-08
9.75067e-06
-3.68778e-08
9.75387e-06
-3.50511e-08
-3.33466e-08
9.75682e-06
8.40966e-06
-1.75362e-08
8.41832e-06
-4.28429e-08
8.42681e-06
-5.39067e-08
8.4349e-06
-5.90449e-08
8.44285e-06
-6.19885e-08
8.45043e-06
-6.28981e-08
8.45747e-06
-6.21048e-08
8.46397e-06
-6.03111e-08
8.46994e-06
-5.79895e-08
8.4754e-06
-5.53802e-08
8.48038e-06
-5.2643e-08
8.4849e-06
-4.98924e-08
8.48901e-06
-4.72054e-08
8.49275e-06
-4.46445e-08
8.49616e-06
-4.22421e-08
8.4993e-06
-4.00053e-08
8.50217e-06
-3.79383e-08
-3.59934e-08
8.50483e-06
7.32304e-06
-2.32925e-08
7.33304e-06
-5.28418e-08
7.34187e-06
-6.27334e-08
7.35007e-06
-6.7241e-08
7.35808e-06
-7.00102e-08
7.36563e-06
-7.04454e-08
7.37259e-06
-6.9069e-08
7.37898e-06
-6.67044e-08
7.38484e-06
-6.38376e-08
7.39015e-06
-6.07056e-08
7.39497e-06
-5.74543e-08
7.39931e-06
-5.42474e-08
7.40322e-06
-5.11202e-08
7.40673e-06
-4.81634e-08
7.4099e-06
-4.54157e-08
7.41278e-06
-4.28859e-08
7.41541e-06
-4.05747e-08
-3.84401e-08
7.41784e-06
6.37842e-06
-3.1647e-08
6.39001e-06
-6.44265e-08
6.39986e-06
-7.25731e-08
6.40912e-06
-7.65449e-08
6.41808e-06
-7.89426e-08
6.4264e-06
-7.877e-08
6.43402e-06
-7.66843e-08
6.44095e-06
-7.36337e-08
6.44721e-06
-7.00969e-08
6.4528e-06
-6.62932e-08
6.45774e-06
-6.24333e-08
6.46211e-06
-5.85953e-08
6.4659e-06
-5.4916e-08
6.46918e-06
-5.14563e-08
6.47202e-06
-4.82558e-08
6.47448e-06
-4.53438e-08
6.47662e-06
-4.27188e-08
-4.03602e-08
6.47851e-06
5.56137e-06
-4.75516e-08
5.57743e-06
-8.04805e-08
5.59181e-06
-8.69643e-08
5.60581e-06
-9.05672e-08
5.61876e-06
-9.18785e-08
5.63015e-06
-9.01495e-08
5.63989e-06
-8.64201e-08
5.64799e-06
-8.17374e-08
5.65453e-06
-7.66258e-08
5.65959e-06
-7.13734e-08
5.6633e-06
-6.61633e-08
5.66583e-06
-6.11267e-08
5.66729e-06
-5.63696e-08
5.66782e-06
-5.19925e-08
5.66757e-06
-4.79988e-08
5.66666e-06
-4.44335e-08
5.66526e-06
-4.13434e-08
-3.88612e-08
5.66375e-06
4.87864e-06
-9.85849e-08
4.91559e-06
-1.17423e-07
4.94281e-06
-1.14203e-07
4.96047e-06
-1.08243e-07
4.96914e-06
-1.0054e-07
4.9703e-06
-9.12889e-08
4.96557e-06
-8.16948e-08
4.95639e-06
-7.25459e-08
4.94391e-06
-6.41487e-08
4.92907e-06
-5.65576e-08
4.91259e-06
-4.96985e-08
4.89499e-06
-4.35234e-08
4.87666e-06
-3.80395e-08
4.85789e-06
-3.32211e-08
4.83904e-06
-2.91467e-08
4.82048e-06
-2.5882e-08
4.8024e-06
-2.3277e-08
-2.16302e-08
4.78514e-06
4.10409e-06
3.98667e-06
3.87246e-06
3.76422e-06
3.66368e-06
3.57239e-06
3.4907e-06
3.41815e-06
3.354e-06
3.29744e-06
3.24774e-06
3.20422e-06
3.16618e-06
3.13296e-06
3.10381e-06
3.07793e-06
3.05464e-06
3.03301e-06
-8.4806e-09
8.40853e-09
-2.35602e-08
1.48343e-08
-3.97256e-08
1.60709e-08
-5.41067e-08
1.41332e-08
-6.15808e-08
7.43485e-09
-5.63874e-08
-5.50266e-09
-3.52705e-08
-2.10212e-08
-1.22975e-09
-3.43774e-08
4.28047e-08
-4.38574e-08
9.13665e-08
-4.88584e-08
1.40689e-07
-4.9127e-08
1.86562e-07
-4.61247e-08
2.27715e-07
-4.09624e-08
2.6199e-07
-3.44976e-08
2.89453e-07
-2.72727e-08
3.08901e-07
-1.96511e-08
3.20852e-07
-1.17502e-08
3.24248e-07
-3.58817e-09
3.19635e-07
4.80593e-09
3.06364e-07
1.30842e-08
2.85678e-07
2.08764e-08
2.57733e-07
2.77657e-08
2.245e-07
3.34102e-08
1.87004e-07
3.73381e-08
1.48004e-07
3.91614e-08
1.09374e-07
3.85254e-08
7.41991e-08
3.53787e-08
4.41517e-08
3.00285e-08
2.1066e-08
2.3319e-08
4.76891e-09
1.6372e-08
-5.08683e-09
1.01171e-08
-9.62104e-09
4.65227e-09
-8.57896e-09
-7.82667e-10
-1.41216e-09
-7.04263e-09
1.353e-08
-1.46867e-08
3.70538e-08
-2.34321e-08
6.78407e-08
-3.05902e-08
1.0058e-07
-3.26887e-08
1.29683e-07
-2.89643e-08
1.50601e-07
-2.08968e-08
1.6161e-07
-1.09206e-08
1.63916e-07
-2.30054e-09
1.61013e-07
2.95633e-09
1.56546e-07
4.46876e-09
1.54229e-07
2.38695e-09
1.53785e-07
4.30047e-10
1.46878e-07
7.03137e-09
1.24717e-07
2.20744e-08
7.99534e-08
4.49301e-08
7.70856e-09
7.20775e-08
-8.72472e-08
9.5074e-08
-1.99778e-07
1.12354e-07
-3.25714e-07
1.2599e-07
-4.61991e-07
1.36145e-07
-6.04623e-07
1.42674e-07
-7.49415e-07
1.44695e-07
-8.91364e-07
1.41969e-07
-1.02862e-06
1.37187e-07
-1.15997e-06
1.31365e-07
-1.28347e-06
1.2345e-07
-1.39704e-06
1.13569e-07
-1.50158e-06
1.04509e-07
-1.59776e-06
9.61839e-08
-1.68571e-06
8.79357e-08
-1.76603e-06
8.03121e-08
-1.83954e-06
7.34959e-08
-1.90736e-06
6.78125e-08
-1.97005e-06
6.26849e-08
-2.02826e-06
5.82055e-08
-2.08251e-06
5.42504e-08
-2.13331e-06
5.0784e-08
-2.18102e-06
4.77141e-08
-2.22602e-06
4.49818e-08
-2.26854e-06
4.25278e-08
-2.30885e-06
4.02997e-08
-2.34709e-06
3.82615e-08
-2.38347e-06
3.63732e-08
-2.41806e-06
3.46128e-08
-2.45101e-06
3.29514e-08
-2.48237e-06
3.13785e-08
-2.51224e-06
2.9873e-08
-2.54065e-06
2.84286e-08
-2.56768e-06
2.70309e-08
-2.59334e-06
2.56773e-08
-2.61768e-06
2.43572e-08
-2.64073e-06
2.30685e-08
-2.6625e-06
2.18049e-08
-2.68303e-06
2.05602e-08
-2.7023e-06
1.93261e-08
-2.72032e-06
1.8109e-08
-2.73711e-06
1.68838e-08
-2.75267e-06
1.56573e-08
-2.76701e-06
1.44112e-08
-2.78007e-06
1.31481e-08
-2.79184e-06
1.18472e-08
-2.80227e-06
1.05104e-08
-2.81131e-06
9.11401e-09
-2.81888e-06
7.65863e-09
-2.82493e-06
6.11829e-09
-2.82934e-06
4.48811e-09
-2.83203e-06
2.7613e-09
-2.83297e-06
9.96422e-10
-2.83228e-06
-6.58463e-10
-2.83014e-06
-2.14299e-09
-2.82662e-06
-3.52553e-09
-2.82175e-06
-4.9027e-09
-2.8155e-06
-6.27235e-09
-2.80787e-06
-7.66281e-09
-2.79883e-06
-9.05028e-09
-2.78839e-06
-1.04573e-08
-2.77653e-06
-1.18583e-08
-2.76326e-06
-1.32721e-08
-2.74857e-06
-1.46752e-08
-2.73248e-06
-1.60827e-08
-2.71498e-06
-1.74753e-08
-2.69609e-06
-1.88635e-08
-2.67581e-06
-2.02329e-08
-2.65419e-06
-2.15893e-08
-2.63122e-06
-2.29207e-08
-2.60696e-06
-2.42271e-08
-2.58143e-06
-2.55009e-08
-2.55464e-06
-2.67381e-08
-2.52666e-06
-2.79453e-08
-2.49749e-06
-2.91103e-08
-2.46721e-06
-3.02483e-08
-2.43581e-06
-3.13382e-08
-2.40339e-06
-3.24002e-08
-2.36994e-06
-3.34087e-08
-2.33554e-06
-3.43881e-08
-2.30021e-06
-3.53087e-08
-2.26403e-06
-3.61974e-08
-2.227e-06
-3.70282e-08
-2.1892e-06
-3.7836e-08
-2.15064e-06
-3.85906e-08
-2.1114e-06
-3.92925e-08
-2.07153e-06
-3.99187e-08
-2.03112e-06
-4.04719e-08
-1.99022e-06
-4.09346e-08
-1.9488e-06
-4.14273e-08
-1.90677e-06
-4.20018e-08
-1.86418e-06
-4.25259e-08
-1.8211e-06
-4.30001e-08
-1.77755e-06
-4.34565e-08
-1.73355e-06
-4.39064e-08
-1.68909e-06
-4.43467e-08
-1.6442e-06
-4.4786e-08
-1.59886e-06
-4.52212e-08
-1.55308e-06
-4.56613e-08
-1.50685e-06
-4.61028e-08
-1.46017e-06
-4.65535e-08
-1.41303e-06
-4.70093e-08
-1.36541e-06
-4.74751e-08
-1.31733e-06
-4.7947e-08
-1.26877e-06
-4.84257e-08
-1.21973e-06
-4.89115e-08
-1.1702e-06
-4.93997e-08
-1.12018e-06
-4.98986e-08
-1.06966e-06
-5.04028e-08
-1.01862e-06
-5.09223e-08
-9.67072e-07
-5.14483e-08
-9.14982e-07
-5.1992e-08
-8.62351e-07
-5.25433e-08
-8.09163e-07
-5.31061e-08
-7.55417e-07
-5.36782e-08
-7.01108e-07
-5.42479e-08
-6.46253e-07
-5.48114e-08
-5.90851e-07
-5.5364e-08
-5.34936e-07
-5.58987e-08
-4.78508e-07
-5.64162e-08
-4.21613e-07
-5.69056e-08
-3.6426e-07
-5.73658e-08
-3.06519e-07
-5.77748e-08
-2.48448e-07
-5.81065e-08
-1.90201e-07
-5.82999e-08
-1.31951e-07
-5.83075e-08
-7.41075e-08
-5.79159e-08
-1.73071e-08
-5.68751e-08
3.69039e-08
-5.42818e-08
8.76304e-08
-5.07928e-08
-2.54592e-08
1.13052e-07
-4.01852e-09
1.23142e-08
-1.13962e-08
2.18038e-08
-1.58218e-08
2.03868e-08
-1.13474e-08
9.203e-09
8.59699e-09
-1.25217e-08
4.3195e-08
-4.03793e-08
8.92016e-08
-6.69506e-08
1.40716e-07
-8.60525e-08
1.92791e-07
-9.58513e-08
2.4114e-07
-9.73482e-08
2.84665e-07
-9.25772e-08
3.22158e-07
-8.37497e-08
3.53872e-07
-7.26014e-08
3.79545e-07
-6.02949e-08
3.99887e-07
-4.75314e-08
4.14847e-07
-3.47233e-08
4.25241e-07
-2.20486e-08
4.31172e-07
-9.61371e-09
4.33468e-07
2.61072e-09
4.31749e-07
1.47193e-08
4.25989e-07
2.67341e-08
4.1525e-07
3.84478e-08
3.99262e-07
4.94843e-08
3.77315e-07
5.92451e-08
3.49594e-07
6.6971e-08
3.16314e-07
7.18001e-08
2.7883e-07
7.2971e-08
2.38838e-07
7.00413e-08
1.99199e-07
6.30985e-08
1.62912e-07
5.27209e-08
1.33487e-07
3.97369e-08
1.13458e-07
2.47898e-08
1.04724e-07
8.1848e-09
1.07277e-07
-9.47628e-09
1.20604e-07
-2.78151e-08
1.41349e-07
-4.41007e-08
1.63377e-07
-5.24865e-08
1.80308e-07
-4.95807e-08
1.88994e-07
-3.75613e-08
1.88563e-07
-2.04506e-08
1.79665e-07
-1.94911e-09
1.64399e-07
1.29642e-08
1.4306e-07
2.43929e-08
1.07751e-07
3.97647e-08
4.82005e-08
6.20756e-08
-4.39282e-08
9.25888e-08
-1.65892e-07
1.29086e-07
-3.08332e-07
1.64524e-07
-4.60787e-07
1.97418e-07
-6.15957e-07
2.27234e-07
-7.71727e-07
2.50852e-07
-9.26296e-07
2.66888e-07
-1.0763e-06
2.75982e-07
-1.21846e-06
2.78276e-07
-1.34975e-06
2.73953e-07
-1.46878e-06
2.63701e-07
-1.57573e-06
2.48902e-07
-1.67045e-06
2.31884e-07
-1.75341e-06
2.14317e-07
-1.82648e-06
1.96497e-07
-1.89192e-06
1.78994e-07
-1.95038e-06
1.62958e-07
-2.00287e-06
1.48661e-07
-2.05079e-06
1.35851e-07
-2.09502e-06
1.24535e-07
-2.13611e-06
1.1457e-07
-2.17435e-06
1.06053e-07
-2.21032e-06
9.86433e-08
-2.24429e-06
9.21712e-08
-2.27652e-06
8.64761e-08
-2.30717e-06
8.14293e-08
-2.33637e-06
7.69124e-08
-2.36422e-06
7.28291e-08
-2.39079e-06
6.90988e-08
-2.41615e-06
6.56548e-08
-2.44033e-06
6.24448e-08
-2.46337e-06
5.94233e-08
-2.48531e-06
5.6558e-08
-2.50617e-06
5.38194e-08
-2.52597e-06
5.11879e-08
-2.54474e-06
4.86434e-08
-2.56247e-06
4.61737e-08
-2.5792e-06
4.37647e-08
-2.59492e-06
4.14085e-08
-2.60964e-06
3.90942e-08
-2.62337e-06
3.68165e-08
-2.63612e-06
3.45661e-08
-2.64787e-06
3.2333e-08
-2.65861e-06
3.01176e-08
-2.66834e-06
2.79004e-08
-2.67706e-06
2.56794e-08
-2.68478e-06
2.34429e-08
-2.69148e-06
2.11768e-08
-2.69715e-06
1.88822e-08
-2.70179e-06
1.65424e-08
-2.70538e-06
1.4161e-08
-2.70793e-06
1.17223e-08
-2.70946e-06
9.23571e-09
-2.70998e-06
6.69297e-09
-2.70955e-06
4.11933e-09
-2.70827e-06
1.53077e-09
-2.7062e-06
-1.04027e-09
-2.70323e-06
-3.61751e-09
-2.69914e-06
-6.23444e-09
-2.69381e-06
-8.889e-09
-2.68715e-06
-1.15733e-08
-2.67917e-06
-1.42809e-08
-2.66984e-06
-1.70149e-08
-2.65914e-06
-1.97661e-08
-2.64706e-06
-2.25371e-08
-2.63361e-06
-2.53154e-08
-2.61878e-06
-2.81022e-08
-2.60256e-06
-3.08837e-08
-2.58497e-06
-3.36605e-08
-2.56602e-06
-3.64187e-08
-2.5457e-06
-3.91582e-08
-2.52404e-06
-4.1866e-08
-2.50106e-06
-4.45422e-08
-2.47678e-06
-4.71724e-08
-2.45123e-06
-4.97518e-08
-2.42444e-06
-5.22679e-08
-2.39643e-06
-5.47182e-08
-2.36724e-06
-5.71e-08
-2.3369e-06
-5.94108e-08
-2.30547e-06
-6.16517e-08
-2.27296e-06
-6.38131e-08
-2.23944e-06
-6.58985e-08
-2.20493e-06
-6.78958e-08
-2.16949e-06
-6.98129e-08
-2.13316e-06
-7.16361e-08
-2.09598e-06
-7.33787e-08
-2.05799e-06
-7.50284e-08
-2.01924e-06
-7.66034e-08
-1.97977e-06
-7.80855e-08
-1.93961e-06
-7.94828e-08
-1.89878e-06
-8.07769e-08
-1.85731e-06
-8.19804e-08
-1.81516e-06
-8.30918e-08
-1.77241e-06
-8.41775e-08
-1.72912e-06
-8.52453e-08
-1.68534e-06
-8.62642e-08
-1.64104e-06
-8.72261e-08
-1.59627e-06
-8.81711e-08
-1.55101e-06
-8.90869e-08
-1.50528e-06
-8.99997e-08
-1.45908e-06
-9.08951e-08
-1.41242e-06
-9.18e-08
-1.36528e-06
-9.26994e-08
-1.31767e-06
-9.36202e-08
-1.26957e-06
-9.4545e-08
-1.22098e-06
-9.54982e-08
-1.17188e-06
-9.64592e-08
-1.12227e-06
-9.74477e-08
-1.07215e-06
-9.84391e-08
-1.0215e-06
-9.94534e-08
-9.70321e-07
-1.00467e-07
-9.18616e-07
-1.01503e-07
-8.66372e-07
-1.02546e-07
-8.13585e-07
-1.03616e-07
-7.60245e-07
-1.047e-07
-7.06343e-07
-1.05812e-07
-6.51871e-07
-1.06942e-07
-5.96821e-07
-1.08089e-07
-5.41195e-07
-1.09251e-07
-4.8499e-07
-1.10406e-07
-4.28223e-07
-1.1155e-07
-3.70901e-07
-1.12664e-07
-3.13052e-07
-1.13747e-07
-2.54688e-07
-1.14785e-07
-1.95846e-07
-1.15776e-07
-1.36549e-07
-1.16695e-07
-7.68526e-08
-1.17527e-07
-1.67978e-08
-1.18217e-07
4.35212e-08
-1.18698e-07
1.039e-07
-1.18762e-07
1.63959e-07
-1.18072e-07
2.23076e-07
-1.16081e-07
2.80487e-07
-1.11791e-07
3.32703e-07
-1.03097e-07
-7.57215e-08
3.82882e-07
8.86801e-11
1.21372e-08
3.0236e-09
1.85356e-08
1.50589e-08
8.25376e-09
4.45813e-08
-2.05331e-08
9.2215e-08
-6.0144e-08
1.49128e-07
-9.74132e-08
2.05525e-07
-1.2331e-07
2.54997e-07
-1.35626e-07
2.95686e-07
-1.36503e-07
3.27689e-07
-1.29453e-07
3.52758e-07
-1.1761e-07
3.72129e-07
-1.03219e-07
3.87255e-07
-8.76886e-08
3.98692e-07
-7.18229e-08
4.07256e-07
-5.60485e-08
4.13041e-07
-4.05882e-08
4.1659e-07
-2.55384e-08
4.17862e-07
-1.09516e-08
4.17385e-07
3.15533e-09
4.15245e-07
1.68124e-08
4.11966e-07
3.00835e-08
4.0741e-07
4.29741e-08
4.01577e-07
5.5393e-08
3.93744e-07
6.7073e-08
3.83273e-07
7.75192e-08
3.69113e-07
8.59827e-08
3.50685e-07
9.14831e-08
3.27822e-07
9.2948e-08
3.01528e-07
8.94791e-08
2.73736e-07
8.05727e-08
2.47294e-07
6.62754e-08
2.24975e-07
4.71764e-08
2.08876e-07
2.43952e-08
2.00044e-07
-5.73413e-10
1.96613e-07
-2.42909e-08
1.92127e-07
-3.95702e-08
1.80384e-07
-4.06766e-08
1.59518e-07
-2.86923e-08
1.30464e-07
-8.44644e-09
9.30443e-08
1.69817e-08
4.39328e-08
4.72346e-08
-2.39619e-08
8.08889e-08
-1.16598e-07
1.17083e-07
-2.34018e-07
1.57212e-07
-3.71903e-07
1.99992e-07
-5.22079e-07
2.42784e-07
-6.75401e-07
2.82431e-07
-8.26926e-07
3.16056e-07
-9.71699e-07
3.42205e-07
-1.10503e-06
3.60565e-07
-1.22488e-06
3.70695e-07
-1.33085e-06
3.72849e-07
-1.42271e-06
3.6783e-07
-1.50108e-06
3.56631e-07
-1.56761e-06
3.40475e-07
-1.62474e-06
3.20811e-07
-1.67502e-06
2.99174e-07
-1.72018e-06
2.77031e-07
-1.76134e-06
2.55458e-07
-1.79981e-06
2.34953e-07
-1.83669e-06
2.15866e-07
-1.87229e-06
1.98543e-07
-1.9067e-06
1.83057e-07
-1.94012e-06
1.6927e-07
-1.9727e-06
1.57102e-07
-2.00448e-06
1.46341e-07
-2.03531e-06
1.3688e-07
-2.0652e-06
1.28529e-07
-2.09414e-06
1.21105e-07
-2.12212e-06
1.14455e-07
-2.14914e-06
1.08448e-07
-2.1752e-06
1.02969e-07
-2.2003e-06
9.79229e-08
-2.22443e-06
9.32318e-08
-2.24761e-06
8.883e-08
-2.26983e-06
8.46653e-08
-2.29109e-06
8.06945e-08
-2.31142e-06
7.68842e-08
-2.3308e-06
7.32067e-08
-2.34925e-06
6.96411e-08
-2.36676e-06
6.61689e-08
-2.38336e-06
6.27762e-08
-2.39904e-06
5.94498e-08
-2.4138e-06
5.61797e-08
-2.42765e-06
5.29559e-08
-2.44059e-06
4.97695e-08
-2.45263e-06
4.66107e-08
-2.46375e-06
4.34731e-08
-2.47394e-06
4.03436e-08
-2.48321e-06
3.7217e-08
-2.49155e-06
3.4076e-08
-2.49897e-06
3.09072e-08
-2.50545e-06
2.77099e-08
-2.511e-06
2.44644e-08
-2.51559e-06
2.11746e-08
-2.51922e-06
1.78234e-08
-2.52187e-06
1.44179e-08
-2.52355e-06
1.09477e-08
-2.52424e-06
7.42497e-09
-2.52394e-06
3.85065e-09
-2.52262e-06
2.35154e-10
-2.52022e-06
-3.42731e-09
-2.51668e-06
-7.16238e-09
-2.51195e-06
-1.09793e-08
-2.50599e-06
-1.48734e-08
-2.49876e-06
-1.8821e-08
-2.49025e-06
-2.28204e-08
-2.48042e-06
-2.68562e-08
-2.46927e-06
-3.09288e-08
-2.45679e-06
-3.50236e-08
-2.44297e-06
-3.91384e-08
-2.42781e-06
-4.32584e-08
-2.41131e-06
-4.73784e-08
-2.39348e-06
-5.14843e-08
-2.37432e-06
-5.55688e-08
-2.35384e-06
-5.96188e-08
-2.33206e-06
-6.36268e-08
-2.309e-06
-6.75812e-08
-2.28468e-06
-7.14712e-08
-2.25913e-06
-7.52833e-08
-2.23236e-06
-7.90059e-08
-2.20442e-06
-8.26326e-08
-2.17534e-06
-8.6157e-08
-2.14514e-06
-8.9579e-08
-2.11387e-06
-9.28907e-08
-2.08157e-06
-9.60897e-08
-2.04828e-06
-9.91676e-08
-2.01404e-06
-1.02123e-07
-1.97888e-06
-1.04951e-07
-1.94287e-06
-1.07651e-07
-1.90602e-06
-1.10223e-07
-1.86839e-06
-1.1267e-07
-1.83001e-06
-1.14995e-07
-1.79092e-06
-1.17196e-07
-1.75115e-06
-1.19274e-07
-1.71074e-06
-1.21224e-07
-1.66969e-06
-1.23051e-07
-1.62804e-06
-1.24768e-07
-1.5858e-06
-1.26411e-07
-1.54304e-06
-1.27996e-07
-1.49976e-06
-1.29513e-07
-1.45599e-06
-1.30977e-07
-1.41172e-06
-1.32408e-07
-1.36696e-06
-1.33813e-07
-1.32173e-06
-1.35202e-07
-1.27601e-06
-1.36582e-07
-1.22981e-06
-1.37965e-07
-1.18313e-06
-1.39357e-07
-1.13595e-06
-1.40768e-07
-1.08827e-06
-1.42203e-07
-1.04007e-06
-1.43668e-07
-9.91341e-07
-1.45161e-07
-9.42077e-07
-1.46683e-07
-8.92272e-07
-1.48224e-07
-8.41918e-07
-1.49783e-07
-7.91015e-07
-1.51353e-07
-7.39558e-07
-1.52939e-07
-6.87546e-07
-1.54545e-07
-6.34972e-07
-1.56173e-07
-5.81833e-07
-1.57829e-07
-5.28123e-07
-1.59508e-07
-4.7384e-07
-1.61218e-07
-4.18979e-07
-1.6294e-07
-3.63545e-07
-1.64678e-07
-3.07543e-07
-1.664e-07
-2.50989e-07
-1.68098e-07
-1.93899e-07
-1.69747e-07
-1.36296e-07
-1.71345e-07
-7.82044e-08
-1.7287e-07
-1.96511e-08
-1.74323e-07
3.93372e-08
-1.75675e-07
9.87084e-08
-1.76889e-07
1.58386e-07
-1.77881e-07
2.18236e-07
-1.78534e-07
2.78071e-07
-1.78582e-07
3.3763e-07
-1.77614e-07
3.96506e-07
-1.74941e-07
4.54156e-07
-1.69425e-07
5.09637e-07
-1.58559e-07
-1.32452e-07
5.66395e-07
-3.98254e-10
1.24786e-08
1.05794e-08
7.32741e-09
4.55814e-08
-2.67683e-08
1.03897e-07
-7.89708e-08
1.70034e-07
-1.26259e-07
2.28724e-07
-1.56195e-07
2.7343e-07
-1.67993e-07
3.04074e-07
-1.66359e-07
3.24177e-07
-1.56583e-07
3.37148e-07
-1.42513e-07
3.45966e-07
-1.26404e-07
3.52094e-07
-1.09433e-07
3.56633e-07
-9.21998e-08
3.59751e-07
-7.5019e-08
3.61805e-07
-5.80669e-08
3.62607e-07
-4.14589e-08
3.62387e-07
-2.52739e-08
3.60958e-07
-9.57638e-09
3.5859e-07
5.57961e-09
3.55193e-07
2.01686e-08
3.51164e-07
3.41752e-08
3.46549e-07
4.75702e-08
3.41705e-07
6.03048e-08
3.36523e-07
7.22572e-08
3.30958e-07
8.31631e-08
3.244e-07
9.2564e-08
3.16252e-07
9.97142e-08
3.05656e-07
1.03583e-07
2.92218e-07
1.02998e-07
2.75939e-07
9.68977e-08
2.57656e-07
8.46363e-08
2.38704e-07
6.61814e-08
2.20512e-07
4.26685e-08
2.02131e-07
1.78557e-08
1.7773e-07
1.86233e-10
1.41642e-07
-3.45445e-09
9.36101e-08
7.41641e-09
3.38136e-08
3.11299e-08
-4.0099e-08
6.55189e-08
-1.30829e-07
1.07736e-07
-2.38495e-07
1.54934e-07
-3.61554e-07
2.03967e-07
-4.96874e-07
2.52425e-07
-6.38384e-07
2.98732e-07
-7.79649e-07
3.41272e-07
-9.14627e-07
3.77767e-07
-1.03813e-06
4.05948e-07
-1.1474e-06
4.25331e-07
-1.24144e-06
4.36251e-07
-1.32006e-06
4.39182e-07
-1.38443e-06
4.35072e-07
-1.43659e-06
4.24996e-07
-1.47887e-06
4.1011e-07
-1.51385e-06
3.91604e-07
-1.54403e-06
3.70647e-07
-1.57158e-06
3.48351e-07
-1.59811e-06
3.25696e-07
-1.62456e-06
3.03464e-07
-1.65133e-06
2.82218e-07
-1.67868e-06
2.62286e-07
-1.70667e-06
2.43847e-07
-1.73514e-06
2.27008e-07
-1.76387e-06
2.11769e-07
-1.79265e-06
1.9805e-07
-1.82131e-06
1.85753e-07
-1.8497e-06
1.7472e-07
-1.87764e-06
1.6482e-07
-1.90502e-06
1.55907e-07
-1.93175e-06
1.47833e-07
-1.95777e-06
1.40468e-07
-1.98302e-06
1.33697e-07
-2.00747e-06
1.27417e-07
-2.03109e-06
1.21544e-07
-2.05387e-06
1.16005e-07
-2.07578e-06
1.10741e-07
-2.09682e-06
1.05705e-07
-2.11698e-06
1.00856e-07
-2.13625e-06
9.61641e-08
-2.15465e-06
9.16042e-08
-2.17216e-06
8.71566e-08
-2.18879e-06
8.28045e-08
-2.20454e-06
7.85343e-08
-2.21942e-06
7.43337e-08
-2.23342e-06
7.01923e-08
-2.24656e-06
6.60997e-08
-2.25883e-06
6.20466e-08
-2.27023e-06
5.80231e-08
-2.28076e-06
5.40181e-08
-2.29041e-06
5.00247e-08
-2.29917e-06
4.60175e-08
-2.30706e-06
4.19993e-08
-2.31405e-06
3.79433e-08
-2.32016e-06
3.38469e-08
-2.32536e-06
2.96916e-08
-2.32963e-06
2.54766e-08
-2.33296e-06
2.11853e-08
-2.33534e-06
1.68211e-08
-2.33674e-06
1.23722e-08
-2.33714e-06
7.84642e-09
-2.33651e-06
3.23724e-09
-2.33481e-06
-1.45433e-09
-2.332e-06
-6.23856e-09
-2.32804e-06
-1.11306e-08
-2.32292e-06
-1.61277e-08
-2.31659e-06
-2.12241e-08
-2.30904e-06
-2.63967e-08
-2.30024e-06
-3.16417e-08
-2.29017e-06
-3.69387e-08
-2.27882e-06
-4.22868e-08
-2.26618e-06
-4.76655e-08
-2.25225e-06
-5.30719e-08
-2.23702e-06
-5.84849e-08
-2.22049e-06
-6.38995e-08
-2.20267e-06
-6.92943e-08
-2.18357e-06
-7.46623e-08
-2.16319e-06
-7.99831e-08
-2.14156e-06
-8.52496e-08
-2.11868e-06