/*--------------------------------*- C++ -*----------------------------------*\
  =========                 |
  \\      /  F ield         | OpenFOAM: The Open Source CFD Toolbox
   \\    /   O peration     | Website:  https://openfoam.org
    \\  /    A nd           | Version:  13
     \\/     M anipulation  |
\*---------------------------------------------------------------------------*/
FoamFile
{
    format      ascii;
    class       volVectorField;
    location    "1800";
    object      U;
}
// * * * * * * * * * * * * * * * * * * * * * * * * * * * * * * * * * * * * * //

dimensions      [0 1 -1 0 0 0 0];

internalField   nonuniform List<vector> 
12225
(
(9.75753 0.0499622 0)
(9.2928 0.102932 0)
(8.83424 0.131391 0)
(8.35452 0.130187 0)
(7.94176 0.113922 0)
(7.57611 0.0926318 0)
(7.27273 0.0549419 0)
(7.02454 0.0453273 0)
(6.80343 0.0410589 0)
(6.62794 0.019426 0)
(6.4953 0.0109888 0)
(6.39945 0.00227481 0)
(6.31788 -0.00863262 0)
(6.24908 -0.00725008 0)
(6.19374 -0.00167463 0)
(6.16102 0.0111799 0)
(6.13171 0.00510141 0)
(6.12383 0.00110118 0)
(10.1119 0.0586675 0)
(10.2825 0.0905559 0)
(10.4104 0.0947857 0)
(10.4488 0.0949608 0)
(10.449 0.094543 0)
(10.4065 0.0925094 0)
(10.3514 0.0913808 0)
(10.2892 0.0857602 0)
(10.2058 0.0792243 0)
(10.1176 0.0733979 0)
(10.0232 0.0647073 0)
(9.9168 0.0592758 0)
(9.81844 0.0563686 0)
(9.72463 0.0498931 0)
(9.63535 0.0412508 0)
(9.54652 0.0324143 0)
(9.45795 0.0251611 0)
(9.38032 0.0162733 0)
(10.0021 0.0437315 0)
(10.0638 0.0668139 0)
(10.1082 0.0765433 0)
(10.1558 0.0836092 0)
(10.203 0.087875 0)
(10.2489 0.0887588 0)
(10.2884 0.0846288 0)
(10.3196 0.0822138 0)
(10.3464 0.0806138 0)
(10.3662 0.0764105 0)
(10.3784 0.0728855 0)
(10.3841 0.0692873 0)
(10.3849 0.0656574 0)
(10.3825 0.0627753 0)
(10.3769 0.0589343 0)
(10.3693 0.0550169 0)
(10.3598 0.0481572 0)
(10.3464 0.0395121 0)
(10.0013 0.0306784 0)
(10.0382 0.05622 0)
(10.0584 0.0685735 0)
(10.0817 0.0765937 0)
(10.1027 0.0798301 0)
(10.1229 0.0784832 0)
(10.1412 0.0733089 0)
(10.1574 0.0698864 0)
(10.1728 0.0669965 0)
(10.1871 0.0627026 0)
(10.1998 0.0591294 0)
(10.2122 0.0562029 0)
(10.2239 0.0532857 0)
(10.2352 0.0506074 0)
(10.2462 0.0477017 0)
(10.257 0.0445414 0)
(10.2662 0.0393238 0)
(10.2738 0.0338198 0)
(10.0019 0.0240499 0)
(10.0284 0.0542529 0)
(10.0493 0.0663611 0)
(10.0693 0.0726486 0)
(10.0861 0.0750829 0)
(10.1015 0.0740993 0)
(10.1145 0.0703731 0)
(10.125 0.0675983 0)
(10.1343 0.0647853 0)
(10.1427 0.0611896 0)
(10.1502 0.0581866 0)
(10.1573 0.0554712 0)
(10.1638 0.0528004 0)
(10.1703 0.0502333 0)
(10.1767 0.047339 0)
(10.1831 0.044015 0)
(10.1888 0.0393965 0)
(10.1936 0.0348295 0)
(10.0019 0.0194789 0)
(10.0196 0.0498587 0)
(10.0414 0.0602708 0)
(10.0603 0.0661869 0)
(10.076 0.0692565 0)
(10.0904 0.0693985 0)
(10.1025 0.0669711 0)
(10.1122 0.0643766 0)
(10.1206 0.0616992 0)
(10.1282 0.0587681 0)
(10.135 0.0558625 0)
(10.1412 0.0529188 0)
(10.1469 0.0499224 0)
(10.1524 0.0469311 0)
(10.1578 0.0436923 0)
(10.163 0.0400866 0)
(10.1675 0.0357713 0)
(10.1713 0.0316422 0)
(10.0022 0.0162407 0)
(10.014 0.0443389 0)
(10.0348 0.0552321 0)
(10.0525 0.0612037 0)
(10.0673 0.0644336 0)
(10.0807 0.0648985 0)
(10.0923 0.0631384 0)
(10.1019 0.0609257 0)
(10.1103 0.0585674 0)
(10.1177 0.0558879 0)
(10.1244 0.0530846 0)
(10.1305 0.0502174 0)
(10.1362 0.0473378 0)
(10.1415 0.044403 0)
(10.1466 0.0412512 0)
(10.1513 0.0377989 0)
(10.1555 0.0339519 0)
(10.1592 0.0302838 0)
(10.0023 0.0138327 0)
(10.0113 0.0384454 0)
(10.0289 0.0493433 0)
(10.0451 0.0555708 0)
(10.059 0.0588559 0)
(10.0716 0.0597555 0)
(10.0828 0.058796 0)
(10.0925 0.0571321 0)
(10.101 0.0550687 0)
(10.1084 0.0526529 0)
(10.1151 0.0500735 0)
(10.1213 0.0473772 0)
(10.1269 0.0445854 0)
(10.1321 0.0416768 0)
(10.1369 0.0385781 0)
(10.1414 0.0352463 0)
(10.1453 0.0316679 0)
(10.1489 0.0282497 0)
(10.0019 0.0118733 0)
(10.0094 0.0335894 0)
(10.024 0.043849 0)
(10.0383 0.0500007 0)
(10.0513 0.0534171 0)
(10.0632 0.0547291 0)
(10.0741 0.0543203 0)
(10.0837 0.0530331 0)
(10.0921 0.0512582 0)
(10.0997 0.0491374 0)
(10.1065 0.0467736 0)
(10.1126 0.0442365 0)
(10.1183 0.041576 0)
(10.1235 0.038785 0)
(10.1283 0.0358095 0)
(10.1326 0.032649 0)
(10.1364 0.0293219 0)
(10.14 0.0261253 0)
(10.0013 0.0101598 0)
(10.0077 0.0294248 0)
(10.0202 0.039189 0)
(10.0329 0.0450002 0)
(10.0447 0.0483977 0)
(10.0559 0.0499141 0)
(10.0664 0.0498656 0)
(10.0757 0.0488728 0)
(10.0841 0.0473416 0)
(10.0917 0.0454428 0)
(10.0985 0.0432829 0)
(10.1048 0.0409219 0)
(10.1105 0.0384113 0)
(10.1157 0.0357504 0)
(10.1205 0.0329286 0)
(10.1248 0.0299518 0)
(10.1286 0.0268508 0)
(10.1322 0.0238413 0)
(10.0009 0.00867909 0)
(10.0064 0.0254833 0)
(10.0169 0.0346046 0)
(10.0284 0.0402933 0)
(10.0393 0.0435312 0)
(10.0496 0.0450535 0)
(10.0594 0.0452109 0)
(10.0684 0.0444522 0)
(10.0766 0.0431381 0)
(10.0841 0.0414508 0)
(10.091 0.0394896 0)
(10.0972 0.0373133 0)
(10.103 0.0349606 0)
(10.1082 0.0324655 0)
(10.113 0.0298178 0)
(10.1173 0.0270475 0)
(10.1211 0.0241742 0)
(10.1247 0.0213727 0)
(10.0007 0.00745758 0)
(10.0055 0.0219783 0)
(10.0144 0.030208 0)
(10.0246 0.0355996 0)
(10.0347 0.0387727 0)
(10.0443 0.0403445 0)
(10.0536 0.0406684 0)
(10.0622 0.0401295 0)
(10.0701 0.0390323 0)
(10.0775 0.0375527 0)
(10.0842 0.0357859 0)
(10.0904 0.0337755 0)
(10.0961 0.0315937 0)
(10.1014 0.0292451 0)
(10.1061 0.0267789 0)
(10.1104 0.0241911 0)
(10.1142 0.0215322 0)
(10.1178 0.0189105 0)
(10.0006 0.00639441 0)
(10.0047 0.0191583 0)
(10.0124 0.0264086 0)
(10.0215 0.0313542 0)
(10.0308 0.0343281 0)
(10.0398 0.0358414 0)
(10.0485 0.0362325 0)
(10.0566 0.0358115 0)
(10.0643 0.0348524 0)
(10.0714 0.0335214 0)
(10.0779 0.0319012 0)
(10.084 0.0300501 0)
(10.0896 0.0280288 0)
(10.0947 0.0258529 0)
(10.0994 0.0235659 0)
(10.1036 0.0211815 0)
(10.1074 0.0187205 0)
(10.111 0.0163231 0)
(10.0005 0.00530918 0)
(10.004 0.0161547 0)
(10.0105 0.0222642 0)
(10.0185 0.026608 0)
(10.0269 0.0292708 0)
(10.0352 0.0306672 0)
(10.0433 0.0310794 0)
(10.0509 0.0307706 0)
(10.0582 0.029947 0)
(10.0649 0.0287707 0)
(10.0712 0.0272975 0)
(10.0771 0.0256328 0)
(10.0825 0.0237726 0)
(10.0874 0.0218063 0)
(10.092 0.0197088 0)
(10.0961 0.017555 0)
(10.0998 0.0153263 0)
(10.1033 0.0131701 0)
(10.0004 0.0042097 0)
(10.0034 0.0130356 0)
(10.0089 0.0178893 0)
(10.0158 0.021478 0)
(10.0233 0.023725 0)
(10.0308 0.0249122 0)
(10.0382 0.0252848 0)
(10.0453 0.025028 0)
(10.0521 0.0243191 0)
(10.0585 0.0232607 0)
(10.0645 0.0219612 0)
(10.07 0.020451 0)
(10.0752 0.0188108 0)
(10.0799 0.0170333 0)
(10.0843 0.0151891 0)
(10.0883 0.0132609 0)
(10.0919 0.0113231 0)
(10.0953 0.0094152 0)
(10.0003 0.0031014 0)
(10.0029 0.00983902 0)
(10.0074 0.0133407 0)
(10.0134 0.0160126 0)
(10.02 0.0177043 0)
(10.0268 0.0185718 0)
(10.0335 0.0188102 0)
(10.0401 0.0185378 0)
(10.0464 0.0178897 0)
(10.0524 0.0169432 0)
(10.058 0.0157934 0)
(10.0633 0.014471 0)
(10.0682 0.0130395 0)
(10.0727 0.0115024 0)
(10.0769 0.00990855 0)
(10.0808 0.00826516 0)
(10.0842 0.0066115 0)
(10.0875 0.00501475 0)
(10.0003 0.00198715 0)
(10.0024 0.0065548 0)
(10.0063 0.0086046 0)
(10.0114 0.0102027 0)
(10.0173 0.0111735 0)
(10.0234 0.0116014 0)
(10.0295 0.011586 0)
(10.0356 0.011227 0)
(10.0415 0.0105775 0)
(10.0471 0.00973224 0)
(10.0524 0.0087108 0)
(10.0574 0.00759612 0)
(10.062 0.0063702 0)
(10.0664 0.00510307 0)
(10.0704 0.00377095 0)
(10.074 0.00243952 0)
(10.0774 0.00108398 0)
(10.0806 -0.000193172 0)
(10.0002 0.000839441 0)
(10.0021 0.0031169 0)
(10.0055 0.00358121 0)
(10.0101 0.00393374 0)
(10.0154 0.00402331 0)
(10.021 0.00385751 0)
(10.0266 0.00348018 0)
(10.0323 0.00293062 0)
(10.0378 0.00223718 0)
(10.0431 0.00143741 0)
(10.0482 0.000554993 0)
(10.0529 -0.000385197 0)
(10.0574 -0.00137132 0)
(10.0615 -0.00238506 0)
(10.0654 -0.00341594 0)
(10.0689 -0.00444735 0)
(10.0722 -0.0054698 0)
(10.0753 -0.00643927 0)
(10.0002 -0.000417353 0)
(10.0019 -0.000679765 0)
(10.0052 -0.00200888 0)
(10.0096 -0.00307647 0)
(10.0147 -0.00402781 0)
(10.0201 -0.0049081 0)
(10.0255 -0.0057571 0)
(10.031 -0.00656287 0)
(10.0363 -0.00735953 0)
(10.0415 -0.00812975 0)
(10.0464 -0.00890011 0)
(10.051 -0.00965371 0)
(10.0553 -0.010408 0)
(10.0593 -0.0111475 0)
(10.0631 -0.011882 0)
(10.0666 -0.0125972 0)
(10.0698 -0.0132969 0)
(10.0728 -0.0139473 0)
(10.0002 -0.00164025 0)
(10.0021 -0.00438616 0)
(10.0057 -0.00745457 0)
(10.0105 -0.00985934 0)
(10.0158 -0.0117518 0)
(10.0214 -0.0132955 0)
(10.0271 -0.014544 0)
(10.0327 -0.015585 0)
(10.0381 -0.0164337 0)
(10.0433 -0.0171743 0)
(10.0482 -0.0178057 0)
(10.0529 -0.0183883 0)
(10.0572 -0.0189056 0)
(10.0612 -0.0194037 0)
(10.065 -0.0198596 0)
(10.0685 -0.0203072 0)
(10.0717 -0.0207203 0)
(10.0747 -0.021109 0)
(10.0003 -0.00277272 0)
(10.0025 -0.00774002 0)
(10.0068 -0.0123207 0)
(10.0122 -0.0157756 0)
(10.0181 -0.0183674 0)
(10.0241 -0.020371 0)
(10.0302 -0.0218854 0)
(10.0361 -0.0230303 0)
(10.0417 -0.0238705 0)
(10.0471 -0.0245198 0)
(10.0522 -0.0250061 0)
(10.0569 -0.0254054 0)
(10.0613 -0.0257167 0)
(10.0654 -0.0259963 0)
(10.0692 -0.0262296 0)
(10.0727 -0.0264538 0)
(10.076 -0.0266499 0)
(10.079 -0.026826 0)
(10.0003 -0.0040133 0)
(10.0032 -0.0112767 0)
(10.0085 -0.0172893 0)
(10.0149 -0.0215892 0)
(10.0216 -0.0247211 0)
(10.0282 -0.0270438 0)
(10.0347 -0.0287245 0)
(10.0411 -0.0298694 0)
(10.0471 -0.0306456 0)
(10.0527 -0.0311413 0)
(10.058 -0.0314662 0)
(10.0629 -0.0316459 0)
(10.0674 -0.0317604 0)
(10.0716 -0.0318065 0)
(10.0754 -0.0318443 0)
(10.079 -0.031849 0)
(10.0823 -0.0318644 0)
(10.0854 -0.0318468 0)
(10.0005 -0.00547313 0)
(10.0044 -0.015203 0)
(10.011 -0.0224915 0)
(10.0187 -0.0274123 0)
(10.0263 -0.0309208 0)
(10.0336 -0.0334637 0)
(10.0407 -0.0351785 0)
(10.0476 -0.0362533 0)
(10.054 -0.0368796 0)
(10.0599 -0.0372034 0)
(10.0654 -0.0373154 0)
(10.0705 -0.0372841 0)
(10.0752 -0.0371656 0)
(10.0795 -0.0370037 0)
(10.0834 -0.0368223 0)
(10.0871 -0.0366396 0)
(10.0904 -0.0364641 0)
(10.0935 -0.0362877 0)
(10.0007 -0.00728947 0)
(10.0062 -0.0197153 0)
(10.0148 -0.027978 0)
(10.0238 -0.0332297 0)
(10.0323 -0.0369841 0)
(10.0404 -0.0396433 0)
(10.0483 -0.0413074 0)
(10.0557 -0.0422253 0)
(10.0626 -0.042655 0)
(10.0689 -0.0427636 0)
(10.0747 -0.0426427 0)
(10.08 -0.0423841 0)
(10.0849 -0.0420354 0)
(10.0893 -0.041663 0)
(10.0934 -0.0412782 0)
(10.0971 -0.0409222 0)
(10.1006 -0.0405788 0)
(10.1038 -0.0402684 0)
(10.001 -0.00961249 0)
(10.0089 -0.0249518 0)
(10.02 -0.0337888 0)
(10.0305 -0.0390908 0)
(10.04 -0.0429518 0)
(10.0491 -0.0456174 0)
(10.0578 -0.0471492 0)
(10.066 -0.0478715 0)
(10.0734 -0.0480781 0)
(10.0802 -0.0479397 0)
(10.0864 -0.0475648 0)
(10.092 -0.0470441 0)
(10.0972 -0.0464465 0)
(10.1018 -0.0458271 0)
(10.1061 -0.0452311 0)
(10.11 -0.0446767 0)
(10.1135 -0.0441742 0)
(10.1168 -0.0437057 0)
(10.0017 -0.0127053 0)
(10.013 -0.0308223 0)
(10.0273 -0.0398001 0)
(10.0397 -0.0450855 0)
(10.0504 -0.0489682 0)
(10.0609 -0.0514425 0)
(10.0709 -0.0526998 0)
(10.0801 -0.0531737 0)
(10.0884 -0.0531581 0)
(10.0961 -0.0528047 0)
(10.103 -0.0522143 0)
(10.1092 -0.0514948 0)
(10.1149 -0.0506913 0)
(10.1199 -0.0498818 0)
(10.1245 -0.0491098 0)
(10.1286 -0.0484017 0)
(10.1324 -0.0477793 0)
(10.1358 -0.0471983 0)
(10.0031 -0.0175667 0)
(10.0203 -0.037126 0)
(10.0392 -0.0452273 0)
(10.0548 -0.0507655 0)
(10.0685 -0.055005 0)
(10.0818 -0.0573594 0)
(10.0945 -0.0582475 0)
(10.106 -0.0583012 0)
(10.1164 -0.05786 0)
(10.1257 -0.0570769 0)
(10.1339 -0.0560815 0)
(10.1412 -0.0549733 0)
(10.1476 -0.0538245 0)
(10.1532 -0.0527123 0)
(10.158 -0.0516859 0)
(10.1621 -0.050762 0)
(10.1657 -0.0499611 0)
(10.1688 -0.0492631 0)
(10.0082 -0.0265893 0)
(10.0413 -0.0466652 0)
(10.0714 -0.0520132 0)
(10.0973 -0.0567348 0)
(10.1207 -0.0614787 0)
(10.1427 -0.0644607 0)
(10.162 -0.0657668 0)
(10.1782 -0.0660283 0)
(10.1914 -0.0656036 0)
(10.2018 -0.0646627 0)
(10.2096 -0.0633685 0)
(10.2152 -0.0618274 0)
(10.2188 -0.0601913 0)
(10.2206 -0.0585563 0)
(10.2208 -0.0570316 0)
(10.2197 -0.0556931 0)
(10.2176 -0.0545402 0)
(10.2147 -0.0536847 0)
(10.0454 -0.0365168 0)
(10.1453 -0.0640159 0)
(10.2183 -0.0687573 0)
(10.2629 -0.0701555 0)
(10.2878 -0.0709893 0)
(10.2974 -0.0705503 0)
(10.2934 -0.0689733 0)
(10.2786 -0.0668241 0)
(10.2555 -0.0643879 0)
(10.2269 -0.0617752 0)
(10.1941 -0.0590397 0)
(10.1587 -0.0562431 0)
(10.1213 -0.0534649 0)
(10.0828 -0.0508359 0)
(10.0435 -0.0483612 0)
(10.0047 -0.0461709 0)
(9.9666 -0.0444051 0)
(9.92996 -0.0434095 0)
(9.87654 -0.040184 0)
(9.62406 -0.0752549 0)
(9.35586 -0.0856073 0)
(9.08615 -0.0864912 0)
(8.83359 -0.0831694 0)
(8.60475 -0.0772441 0)
(8.39951 -0.0701966 0)
(8.21622 -0.0628263 0)
(8.05383 -0.0556493 0)
(7.91037 -0.0489381 0)
(7.78427 -0.0427302 0)
(7.67359 -0.0370174 0)
(7.57687 -0.0318255 0)
(7.49226 -0.0271198 0)
(7.41863 -0.0230094 0)
(7.35346 -0.0196639 0)
(7.29507 -0.0170123 0)
(7.24312 -0.0152884 0)
(-0.00289644 0.00755003 -7.68604e-19)
(-0.0133935 0.0124195 8.69793e-19)
(-0.0282031 0.0132498 -5.98151e-19)
(-0.0435969 0.0111982 -1.81925e-19)
(-0.0553027 0.00551012 2.80323e-19)
(-0.056166 -0.00371148 -6.97071e-20)
(-0.0418714 -0.0161 -6.91586e-20)
(-0.0160524 -0.0295188 3.79472e-19)
(0.0187179 -0.0402602 -1.95014e-19)
(0.0593455 -0.0459427 4.47691e-20)
(0.102868 -0.0469582 1.4208e-20)
(0.145725 -0.0444679 -1.5116e-19)
(0.185099 -0.0395511 2.09379e-19)
(0.219179 -0.0330733 2.12553e-19)
(0.24708 -0.0256472 1.82379e-20)
(0.268313 -0.0176773 7.67142e-20)
(0.282571 -0.00935878 3.02203e-20)
(0.289963 -0.000697782 5.26427e-20)
(0.28972 0.00830108 7.84936e-20)
(0.281672 0.0171763 8.50126e-21)
(0.266436 0.0252273 -2.90823e-20)
(0.24464 0.0316422 2.48272e-19)
(0.217084 0.0357558 -3.3433e-20)
(0.185083 0.0369548 2.93751e-19)
(0.150292 0.0348797 -6.81478e-20)
(0.114884 0.0294872 2.98794e-19)
(0.0811408 0.0213697 1.7942e-19)
(0.0514176 0.0118811 1.43011e-19)
(0.0274201 0.00318448 -7.12452e-19)
(0.0100033 -0.00267712 -1.61595e-19)
(-0.00141381 -0.0053864 -1.21875e-18)
(-0.00807333 -0.00658971 7.12931e-19)
(-0.0100152 -0.00788837 5.14772e-19)
(-0.00575214 -0.010366 -6.48848e-19)
(0.0045254 -0.0144721 -8.79811e-19)
(0.0221812 -0.0199612 -4.28082e-20)
(0.0470223 -0.0254357 1.75261e-19)
(0.0759508 -0.0280822 3.31251e-19)
(0.104473 -0.0264931 1.91288e-19)
(0.127881 -0.0209855 3.93211e-19)
(0.142934 -0.0133365 1.47296e-19)
(0.149231 -0.00594637 3.83261e-20)
(0.148374 -0.000885091 -5.12339e-19)
(0.144148 0.000958127 -1.07125e-19)
(0.140657 -0.00135079 2.24942e-19)
(0.139753 -0.00832457 1.16474e-20)
(0.137419 -0.0187535 5.39659e-19)
(0.126406 -0.026206 1.77363e-19)
(0.0999007 -0.0204173 7.8094e-20)
(0.0542168 0.000115957 -7.72874e-19)
(-0.0306519 0.0209004 4.91999e-19)
(-0.130971 0.0421832 2.57691e-20)
(-0.239344 0.0658073 2.42753e-19)
(-0.358638 0.0878538 1.45771e-19)
(-0.48585 0.104324 4.71795e-20)
(-0.617752 0.110822 9.72986e-20)
(-0.750772 0.108293 1.18842e-19)
(-0.880383 0.106598 -1.17559e-19)
(-1.0033 0.106353 4.34003e-20)
(-1.12037 0.101322 4.69401e-20)
(-1.23012 0.0908372 -1.08258e-19)
(-1.33096 0.0831049 -6.81908e-20)
(-1.42351 0.0770473 5.16274e-20)
(-1.50897 0.0699188 6.05531e-20)
(-1.58701 0.0627281 1.67929e-20)
(-1.65869 0.0562046 -6.37091e-20)
(-1.72475 0.0515148 6.94021e-21)
(-1.7859 0.0472153 3.26073e-21)
(-1.8428 0.0435155 1.61784e-20)
(-1.89592 0.040233 7.86368e-20)
(-1.94572 0.0373992 -3.89914e-21)
(-1.99261 0.0348972 -5.6393e-20)
(-2.03692 0.0326955 6.05404e-20)
(-2.07893 0.0307351 2.19904e-20)
(-2.11885 0.0289757 -3.54735e-20)
(-2.15688 0.0273845 2.93995e-20)
(-2.19316 0.0259298 -4.51267e-21)
(-2.22783 0.0245917 5.64009e-20)
(-2.26099 0.0233484 2.59197e-20)
(-2.29271 0.0221894 -3.81883e-20)
(-2.32307 0.0210986 -1.08842e-20)
(-2.35213 0.0200697 2.14888e-21)
(-2.37993 0.0190908 4.25986e-20)
(-2.40651 0.0181582 5.27676e-20)
(-2.4319 0.0172619 4.63486e-20)
(-2.45614 0.0163983 -4.6934e-20)
(-2.47923 0.0155597 9.96183e-20)
(-2.50121 0.0147391 -3.94618e-21)
(-2.52207 0.0139299 7.10833e-20)
(-2.5418 0.0131292 -1.00471e-19)
(-2.56044 0.01232 -5.37729e-20)
(-2.57797 0.0115021 4.51097e-20)
(-2.5944 0.01066 6.5462e-20)
(-2.6097 0.00979141 -9.91137e-21)
(-2.62385 0.00888172 -6.12885e-20)
(-2.63681 0.00793037 -6.07559e-20)
(-2.64852 0.00692484 6.22235e-20)
(-2.65892 0.00587116 -3.34733e-20)
(-2.66796 0.00476989 -7.97413e-20)
(-2.67554 0.00364998 -3.47098e-20)
(-2.68159 0.00255082 8.5594e-20)
(-2.68599 0.00153341 4.29782e-20)
(-2.68872 0.000647051 6.42396e-20)
(-2.69005 -0.000129001 -3.92769e-20)
(-2.69011 -0.000852068 1.2512e-20)
(-2.6889 -0.00157033 4.34699e-21)
(-2.6864 -0.00228244 -7.97041e-21)
(-2.6826 -0.00300224 -1.72677e-20)
(-2.67748 -0.00371755 -2.59266e-20)
(-2.67103 -0.00444005 -4.21598e-20)
(-2.66324 -0.00515651 -5.77198e-20)
(-2.65409 -0.00587696 3.05242e-20)
(-2.64359 -0.00658899 -4.2545e-20)
(-2.63174 -0.00730036 -4.15416e-20)
(-2.61852 -0.00800033 7.30502e-20)
(-2.60396 -0.00869412 -4.30509e-21)
(-2.58804 -0.00937334 -4.66062e-20)
(-2.5708 -0.0100412 -4.84198e-20)
(-2.55224 -0.0106911 4.45247e-20)
(-2.53238 -0.0113235 3.3166e-21)
(-2.51125 -0.0119342 1.32535e-20)
(-2.48887 -0.0125223 -8.63096e-21)
(-2.46528 -0.0130888 -2.50688e-20)
(-2.44049 -0.0136289 2.10453e-20)
(-2.41455 -0.0141477 -1.84216e-20)
(-2.38748 -0.0146359 1.6488e-20)
(-2.35932 -0.0151022 2.20585e-20)
(-2.33011 -0.0155359 -7.71139e-21)
(-2.29989 -0.0159469 2.09633e-20)
(-2.2687 -0.0163172 -1.799e-20)
(-2.23657 -0.0166585 4.19869e-20)
(-2.20355 -0.016957 -3.49292e-21)
(-2.16967 -0.0172405 -3.99899e-20)
(-2.13497 -0.0174812 8.71909e-21)
(-2.09948 -0.0176413 -1.84333e-21)
(-2.06328 -0.0176863 7.58925e-21)
(-2.02643 -0.0175667 6.05544e-21)
(-1.98901 -0.0172258 -8.53576e-22)
(-1.95101 -0.0169771 1.79284e-21)
(-1.91233 -0.017026 -9.0387e-22)
(-1.87299 -0.0171292 2.44316e-20)
(-1.83304 -0.0171974 2.69499e-20)
(-1.79254 -0.0172571 -1.66324e-20)
(-1.75146 -0.0173182 -1.97393e-20)
(-1.70984 -0.0173762 -3.79079e-20)
(-1.66767 -0.0174381 -5.82995e-20)
(-1.62495 -0.0175047 -4.58964e-20)
(-1.58168 -0.017581 -7.69319e-20)
(-1.53785 -0.0176677 3.91459e-20)
(-1.49344 -0.0177695 3.73154e-20)
(-1.44846 -0.0178866 6.57293e-20)
(-1.40289 -0.0180216 4.97161e-20)
(-1.35671 -0.0181764 1.43507e-19)
(-1.30992 -0.0183512 9.85097e-21)
(-1.26251 -0.0185491 6.39598e-21)
(-1.21448 -0.0187684 -1.12827e-19)
(-1.16579 -0.0190175 1.80596e-19)
(-1.11647 -0.0192911 -1.08492e-19)
(-1.06646 -0.0195991 1.52425e-20)
(-1.01579 -0.0199337 5.57092e-20)
(-0.964401 -0.0203041 2.05302e-20)
(-0.912312 -0.0207015 5.27961e-20)
(-0.859474 -0.0211328 2.52314e-19)
(-0.805895 -0.0215971 1.25524e-19)
(-0.751555 -0.0220874 5.98117e-20)
(-0.696457 -0.022606 8.54843e-20)
(-0.640605 -0.02315 2.4363e-19)
(-0.584008 -0.0237194 -1.07652e-20)
(-0.526678 -0.0243138 2.86384e-19)
(-0.468631 -0.0249319 4.17638e-19)
(-0.409886 -0.0255737 4.10884e-19)
(-0.350478 -0.026233 -1.51379e-20)
(-0.290469 -0.0269003 3.96925e-20)
(-0.229946 -0.0275779 -9.51492e-20)
(-0.169072 -0.0282235 -1.21106e-18)
(-0.108143 -0.0286762 6.09274e-19)
(-0.047627 -0.0287043 4.56911e-19)
(0.00977181 -0.0274909 -8.95671e-19)
(0.0733283 -0.0244396 -8.16707e-19)
(0.0936742 -0.0119734 1.19324e-18)
(-0.000763889 0.0210899 2.14024e-18)
(-0.00634938 0.0377938 -1.61972e-18)
(-0.0147971 0.0389177 -6.80873e-19)
(-0.0172345 0.030054 1.87961e-18)
(-0.00599177 0.00939181 4.4379e-19)
(0.0216311 -0.0265221 2.01001e-19)
(0.0591084 -0.0684286 -1.2199e-19)
(0.102912 -0.103755 -4.40407e-19)
(0.149144 -0.126413 -2.45766e-20)
(0.194 -0.135479 -3.10422e-19)
(0.235022 -0.133347 1.64651e-20)
(0.271195 -0.123432 -4.28761e-21)
(0.30214 -0.108719 9.51252e-20)
(0.327854 -0.0913912 1.36405e-20)
(0.348511 -0.0728588 -2.96122e-20)
(0.364385 -0.0540132 -2.48108e-19)
(0.375855 -0.0352296 -5.3617e-20)
(0.383126 -0.0167078 2.3553e-19)
(0.386999 0.00158244 -2.75127e-19)
(0.387624 0.0195441 7.69536e-20)
(0.384666 0.036939 6.99872e-21)
(0.377658 0.0532546 1.5373e-19)
(0.36602 0.067844 1.81959e-19)
(0.349264 0.0797535 1.59957e-19)
(0.327089 0.0879419 2.16986e-19)
(0.29964 0.0913229 -1.30833e-19)
(0.267614 0.0891415 3.55283e-20)
(0.232447 0.0812834 4.96972e-20)
(0.196188 0.0685522 -2.17657e-19)
(0.161497 0.0525329 -1.77964e-19)
(0.131262 0.0349345 -3.44537e-19)
(0.108482 0.0168128 -1.27543e-19)
(0.0953026 -0.00179541 -1.10445e-18)
(0.0928266 -0.0206074 4.49086e-19)
(0.100901 -0.0394813 -5.67211e-19)
(0.117651 -0.0578652 5.71313e-19)
(0.138316 -0.0708545 -4.53678e-19)
(0.15655 -0.0723869 1.08996e-19)
(0.168226 -0.0621372 2.54783e-19)
(0.171957 -0.0443484 -1.97909e-19)
(0.167814 -0.0245204 1.78267e-19)
(0.157177 -0.00911703 -7.87948e-20)
(0.141201 -0.000281506 -3.36357e-19)
(0.11743 0.00383338 -1.10561e-18)
(0.0783798 0.00873484 -9.32099e-19)
(0.0128577 0.0255287 1.16048e-20)
(-0.0900206 0.0629485 -8.59794e-19)
(-0.215245 0.107481 -1.50606e-19)
(-0.349093 0.152132 3.78486e-19)
(-0.487846 0.193284 4.43997e-19)
(-0.631423 0.226373 8.62168e-20)
(-0.77398 0.250225 -3.17886e-20)
(-0.91359 0.265373 -2.9131e-20)
(-1.04799 0.272123 -8.59181e-20)
(-1.17416 0.271303 -6.15576e-20)
(-1.28998 0.264252 -1.52904e-19)
(-1.39416 0.25202 -1.72388e-19)
(-1.48659 0.236171 -3.74353e-20)
(-1.56838 0.218699 2.41e-20)
(-1.64067 0.200593 -1.19476e-19)
(-1.70505 0.182729 9.00307e-20)
(-1.76234 0.165874 -3.82502e-20)
(-1.81432 0.150496 -1.51077e-19)
(-1.86132 0.136663 1.15399e-20)
(-1.90507 0.12444 1.08183e-19)
(-1.94541 0.113685 -4.14324e-20)
(-1.98319 0.104408 4.56164e-21)
(-2.01875 0.0963008 -9.5166e-20)
(-2.05242 0.0892423 3.26793e-20)
(-2.08444 0.0830644 -5.5557e-20)
(-2.11501 0.0776288 9.91036e-22)
(-2.14424 0.07281 -6.83775e-20)
(-2.17225 0.0684993 2.22548e-21)
(-2.1991 0.0646081 -4.0375e-20)
(-2.22485 0.06106 5.33894e-20)
(-2.24955 0.0577977 -9.20006e-20)
(-2.27324 0.0547683 1.196e-20)
(-2.29594 0.0519363 -9.26487e-20)
(-2.31768 0.0492667 3.64792e-21)
(-2.33847 0.0467392 7.29106e-20)
(-2.35834 0.0443298 1.42841e-20)
(-2.3773 0.0420264 -4.26451e-20)
(-2.39536 0.0398126 -6.36889e-20)
(-2.41252 0.0376814 3.64536e-20)
(-2.4288 0.0356205 1.02598e-19)
(-2.4442 0.0336251 -3.24203e-20)
(-2.45871 0.0316859 -1.08868e-21)
(-2.47234 0.0297945 -2.72415e-21)
(-2.48507 0.0279467 6.52478e-20)
(-2.4969 0.0261343 2.28633e-19)
(-2.50782 0.0243457 4.97306e-20)
(-2.51783 0.0225763 9.31286e-20)
(-2.52693 0.020811 -2.01863e-19)
(-2.5351 0.0190508 -9.70106e-20)
(-2.54234 0.017278 6.31114e-20)
(-2.54862 0.0154946 1.2832e-19)
(-2.55395 0.0136816 -7.05397e-20)
(-2.55832 0.0118415 -2.86679e-20)
(-2.56176 0.00995662 -4.94054e-20)
(-2.5643 0.00803761 7.18545e-20)
(-2.566 0.00609453 -9.9861e-20)
(-2.56695 0.0041769 -7.51313e-20)
(-2.5672 0.00233618 -4.84738e-20)
(-2.56651 0.000576101 1.60221e-19)
(-2.56466 -0.00113529 -1.80886e-20)
(-2.5616 -0.00283242 1.13071e-20)
(-2.5573 -0.00451291 5.89416e-20)
(-2.55173 -0.00618898 1.27016e-19)
(-2.54486 -0.00784814 -1.73434e-20)
(-2.5367 -0.00949997 -4.87451e-20)
(-2.52722 -0.0111297 3.86185e-21)
(-2.51641 -0.0127454 -8.99744e-20)
(-2.50428 -0.0143328 9.74116e-20)
(-2.49082 -0.0158983 3.64245e-20)
(-2.47603 -0.0174293 2.86069e-20)
(-2.45991 -0.0189303 7.08034e-20)
(-2.44248 -0.0203908 8.47099e-20)
(-2.42375 -0.0218139 -4.40712e-20)
(-2.40373 -0.0231895 2.84507e-20)
(-2.38244 -0.0245168 4.08349e-20)
(-2.3599 -0.0257887 4.89521e-20)
(-2.33614 -0.0270047 -5.57312e-21)
(-2.31119 -0.0281666 -2.144e-21)
(-2.28506 -0.0292712 -3.84803e-20)
(-2.2578 -0.0303243 -3.50556e-20)
(-2.22944 -0.0313166 -3.69127e-20)
(-2.20001 -0.0322563 3.54623e-20)
(-2.16955 -0.0331318 -4.89688e-21)
(-2.1381 -0.0339547 -1.9867e-20)
(-2.1057 -0.0347127 -3.99501e-21)
(-2.07238 -0.035421 -2.11526e-20)
(-2.03818 -0.0360684 -2.56705e-20)
(-2.00315 -0.0366706 -1.19602e-20)
(-1.96731 -0.0372144 5.53604e-21)
(-1.93071 -0.037718 3.60861e-21)
(-1.89337 -0.0381766 3.09521e-21)
(-1.85529 -0.0386123 -1.75267e-21)
(-1.81648 -0.0390303 2.00096e-21)
(-1.77693 -0.0394202 -6.13187e-23)
(-1.73674 -0.0397519 1.06134e-20)
(-1.69594 -0.0400243 -9.71278e-21)
(-1.65455 -0.0402601 1.48877e-20)
(-1.61256 -0.0404842 7.77658e-21)
(-1.56999 -0.040691 -1.70006e-20)
(-1.52684 -0.0408921 -5.82791e-21)
(-1.48311 -0.0410842 -3.13805e-20)
(-1.43879 -0.0412768 -2.041e-20)
(-1.3939 -0.0414665 4.58487e-20)
(-1.3484 -0.0416629 7.64986e-20)
(-1.3023 -0.041861 -1.08013e-19)
(-1.25558 -0.0420692 3.39318e-20)
(-1.20822 -0.0422809 6.86892e-21)
(-1.16022 -0.0425023 -1.9594e-19)
(-1.11155 -0.0427246 4.91969e-21)
(-1.06221 -0.042957 3.15545e-21)
(-1.01219 -0.043188 -6.72859e-20)
(-0.961486 -0.0434298 8.6799e-20)
(-0.910085 -0.0436751 1.24387e-19)
(-0.857965 -0.0439342 1.31831e-19)
(-0.805129 -0.0442 1.19294e-19)
(-0.751543 -0.0444811 -1.80632e-19)
(-0.697212 -0.0447727 2.35e-20)
(-0.642102 -0.045074 -5.15204e-20)
(-0.586219 -0.0453858 1.42257e-19)
(-0.529546 -0.0456982 -4.4242e-20)
(-0.472089 -0.0460103 1.83816e-19)
(-0.413854 -0.0463155 -1.87838e-19)
(-0.35485 -0.046614 -2.99503e-19)
(-0.295094 -0.0469016 -4.70331e-19)
(-0.234604 -0.0471785 -2.28537e-19)
(-0.173402 -0.0474379 -1.06551e-19)
(-0.111517 -0.0476733 5.27489e-20)
(-0.0490199 -0.0478612 3.32247e-20)
(0.0140646 -0.047958 -3.92952e-19)
(0.0776308 -0.0478858 -3.64925e-19)
(0.141289 -0.0475242 5.02794e-19)
(0.204855 -0.0466473 6.12975e-19)
(0.26608 -0.0447027 5.73629e-19)
(0.329971 -0.04058 2.88367e-19)
(0.370977 -0.0279068 -6.19528e-19)
(-4.72249e-06 0.0244442 2.76301e-19)
(0.000576619 0.0427893 2.60428e-18)
(0.00440599 0.0373111 2.74944e-18)
(0.0213439 0.00790981 -1.96168e-18)
(0.0576054 -0.0487611 3.46308e-19)
(0.106963 -0.115423 -1.53479e-19)
(0.159143 -0.170922 -6.12225e-20)
(0.206817 -0.204734 4.5754e-19)
(0.246857 -0.216583 3.53348e-19)
(0.278917 -0.211343 2.90368e-19)
(0.304049 -0.194862 1.30003e-19)
(0.323659 -0.172057 1.22809e-19)
(0.338966 -0.146316 -3.90894e-19)
(0.350844 -0.119689 -2.42457e-19)
(0.359854 -0.0932855 8.71181e-20)
(0.366384 -0.0676721 -1.88924e-19)
(0.370696 -0.0430588 1.85249e-19)
(0.372987 -0.0195377 2.79875e-20)
(0.373456 0.00292061 2.77239e-19)
(0.37243 0.0244392 2.41697e-19)
(0.370167 0.0451916 -2.28938e-19)
(0.366871 0.065165 -6.17301e-19)
(0.362504 0.0840965 -1.11513e-19)
(0.356748 0.101363 -7.22771e-19)
(0.348958 0.115993 1.63232e-19)
(0.338316 0.126686 2.58584e-19)
(0.323991 0.132011 -1.05909e-19)
(0.30553 0.13071 3.77965e-19)
(0.283243 0.122119 2.14302e-19)
(0.258433 0.106385 5.09599e-19)
(0.233399 0.0844852 -2.79015e-19)
(0.21093 0.0577737 -1.98074e-19)
(0.193708 0.027707 1.12868e-19)
(0.182757 -0.00462379 -1.47825e-19)
(0.178369 -0.0380892 -2.01545e-19)
(0.176617 -0.0662223 -1.20103e-20)
(0.169774 -0.0775011 -5.63687e-19)
(0.154595 -0.068849 1.84641e-19)
(0.1318 -0.0470128 -4.59706e-19)
(0.101946 -0.0184892 -1.62888e-19)
(0.0649233 0.0132184 1.60952e-19)
(0.0163753 0.0435211 -1.78605e-19)
(-0.0567068 0.0738745 -3.13462e-19)
(-0.154333 0.115127 6.34555e-19)
(-0.27143 0.166149 5.23704e-19)
(-0.403363 0.221226 -2.72613e-19)
(-0.543207 0.276017 1.00351e-19)
(-0.683698 0.325512 -9.84526e-20)
(-0.819601 0.366362 -1.51222e-19)
(-0.947191 0.397888 -6.55584e-20)
(-1.06318 0.418533 -6.44404e-20)
(-1.16671 0.427985 1.13769e-19)
(-1.25753 0.427183 1.83786e-20)
(-1.33565 0.417345 8.00138e-20)
(-1.40223 0.399946 8.83707e-21)
(-1.45914 0.376809 9.85493e-21)
(-1.50866 0.350057 4.18285e-20)
(-1.55281 0.322003 6.4253e-20)
(-1.59299 0.294363 -1.07637e-20)
(-1.63035 0.267882 2.05883e-19)
(-1.66586 0.243134 1.48049e-19)
(-1.70012 0.2208 3.41702e-20)
(-1.73338 0.201006 7.62518e-20)
(-1.76573 0.183524 -1.77393e-19)
(-1.79733 0.168287 2.63018e-20)
(-1.82823 0.154951 1.02804e-19)
(-1.85836 0.143396 -1.65065e-19)
(-1.88769 0.133325 -7.48285e-20)
(-1.91621 0.124479 5.0256e-20)
(-1.9439 0.116653 3.93352e-20)
(-1.97076 0.109672 -8.34834e-20)
(-1.99678 0.103385 1.44176e-19)
(-2.02196 0.0976706 1.68645e-20)
(-2.04631 0.0924275 5.20282e-20)
(-2.06981 0.0875729 -1.70796e-19)
(-2.09248 0.0830418 1.65386e-19)
(-2.11432 0.0787799 3.47599e-20)
(-2.13532 0.0747463 -7.17418e-20)
(-2.15549 0.0709063 -1.30595e-19)
(-2.17484 0.0672344 -6.48061e-20)
(-2.19337 0.0637074 1.04071e-20)
(-2.21108 0.0603089 2.7992e-20)
(-2.22798 0.0570229 -1.32404e-20)
(-2.24407 0.0538381 -9.884e-20)
(-2.25935 0.0507426 -2.71297e-20)
(-2.27382 0.0477274 -3.00175e-20)
(-2.28749 0.044782 1.79857e-20)
(-2.30034 0.0418975 -6.22804e-20)
(-2.31237 0.0390662 -8.93911e-20)
(-2.32357 0.0362763 -1.10109e-19)
(-2.33393 0.0335177 3.55534e-20)
(-2.34346 0.0307784 -1.30063e-19)
(-2.35216 0.0280527 1.26571e-19)
(-2.36001 0.0253311 1.10104e-20)
(-2.36699 0.0226103 -2.99151e-20)
(-2.37311 0.0198838 -5.57782e-20)
(-2.37833 0.0171519 1.92897e-20)
(-2.38267 0.0144157 9.30519e-20)
(-2.38611 0.0116815 7.67544e-20)
(-2.38863 0.00895909 3.40187e-20)
(-2.39023 0.00625412 4.09526e-20)
(-2.39085 0.00356525 2.04638e-20)
(-2.39046 0.000865497 1.89316e-20)
(-2.38896 -0.00185658 -2.62381e-19)
(-2.38633 -0.00459072 5.16396e-20)
(-2.38252 -0.00732079 4.67869e-20)
(-2.3775 -0.0100435 -9.10749e-20)
(-2.37125 -0.0127524 7.74309e-20)
(-2.36375 -0.015445 -2.57802e-20)
(-2.35498 -0.0181151 1.11889e-19)
(-2.34493 -0.0207581 8.14067e-20)
(-2.3336 -0.0233675 5.72845e-20)
(-2.32097 -0.0259374 -3.77317e-20)
(-2.30705 -0.0284618 4.55128e-20)
(-2.29184 -0.0309343 2.9251e-20)
(-2.27534 -0.0333494 -3.51862e-20)
(-2.25757 -0.0357011 -5.26351e-20)
(-2.23853 -0.0379852 1.6403e-19)
(-2.21823 -0.0401938 2.43824e-20)
(-2.19671 -0.0423207 -5.57089e-20)
(-2.17397 -0.0443586 -1.39304e-19)
(-2.15004 -0.0463057 -1.75565e-20)
(-2.12494 -0.0481604 -1.18173e-21)
(-2.09871 -0.0499238 -4.78607e-20)
(-2.07137 -0.0515946 4.89726e-21)
(-2.04296 -0.053171 3.6943e-20)
(-2.01351 -0.054652 -9.98498e-20)
(-1.98306 -0.0560357 3.25549e-20)
(-1.95165 -0.0573237 1.25226e-20)
(-1.9193 -0.0585146 4.68697e-20)
(-1.88606 -0.0596132 -1.22892e-20)
(-1.85197 -0.0606191 2.44384e-20)
(-1.81704 -0.0615397 5.59953e-20)
(-1.78133 -0.0623716 5.16539e-21)
(-1.74486 -0.0631175 -1.64934e-20)
(-1.70766 -0.0637722 3.48937e-21)
(-1.66975 -0.0643426 1.79272e-21)
(-1.63113 -0.0648412 -6.00182e-22)
(-1.59183 -0.0652988 2.34396e-21)
(-1.5519 -0.0657185 -8.19328e-22)
(-1.51135 -0.0660901 4.13348e-21)
(-1.47021 -0.0664194 -3.91565e-20)
(-1.42846 -0.066725 -5.51818e-21)
(-1.38613 -0.0670072 -6.11822e-21)
(-1.34321 -0.0672771 -1.21419e-20)
(-1.29969 -0.0675341 5.68283e-20)
(-1.25558 -0.0677885 -1.6829e-20)
(-1.21087 -0.0680399 -3.6315e-20)