/*--------------------------------*- C++ -*----------------------------------*\
  =========                 |
  \\      /  F ield         | OpenFOAM: The Open Source CFD Toolbox
   \\    /   O peration     | Website:  https://openfoam.org
    \\  /    A nd           | Version:  13
     \\/     M anipulation  |
\*---------------------------------------------------------------------------*/
FoamFile
{
    format      ascii;
    class       volScalarField;
    location    "1600";
    object      k;
}
// * * * * * * * * * * * * * * * * * * * * * * * * * * * * * * * * * * * * * //

dimensions      [0 2 -2 0 0 0 0];

internalField   nonuniform List<scalar> 
12225
(
0.529038
1.1814
1.52607
1.71288
1.6419
1.58835
2.20403
2.03083
1.58204
1.74512
1.50293
1.61876
1.74237
1.4622
1.67351
1.44746
1.3874
1.37689
0.365039
0.386655
0.411455
0.462221
0.469623
0.505194
0.527596
0.556284
0.556807
0.531202
0.544026
0.556593
0.61922
0.630653
0.679538
0.73242
0.791943
0.842401
0.355954
0.348733
0.287809
0.220228
0.152086
0.117865
0.117053
0.122024
0.124936
0.119358
0.119209
0.125094
0.138033
0.153114
0.168823
0.186979
0.197967
0.213584
0.36599
0.335318
0.265807
0.192993
0.135217
0.101443
0.0800605
0.0748173
0.0702382
0.0681812
0.0618923
0.0793565
0.0828681
0.0966233
0.0985381
0.104625
0.108505
0.110363
0.375439
0.336363
0.258396
0.194306
0.155245
0.136702
0.124696
0.112044
0.109467
0.0979179
0.0941889
0.0962591
0.0989992
0.12866
0.130148
0.141074
0.144417
0.139138
0.376276
0.346874
0.295812
0.238792
0.195345
0.180955
0.174907
0.171415
0.157775
0.162693
0.156027
0.157032
0.159745
0.189946
0.19193
0.205329
0.213759
0.211177
0.375983
0.358236
0.328474
0.297411
0.267863
0.270275
0.250948
0.251683
0.254123
0.245233
0.242668
0.241931
0.25962
0.258628
0.261728
0.268036
0.271203
0.267837
0.374255
0.368565
0.356208
0.345797
0.332388
0.329503
0.321059
0.318852
0.316553
0.308044
0.308974
0.313103
0.308943
0.310749
0.311245
0.30863
0.307017
0.303094
0.373511
0.370732
0.365409
0.360013
0.354819
0.351451
0.348464
0.345879
0.343818
0.34085
0.338838
0.337319
0.3352
0.332809
0.330803
0.32795
0.325981
0.322989
0.373531
0.371506
0.36831
0.365067
0.361914
0.359265
0.357015
0.354899
0.353077
0.351027
0.349133
0.347081
0.345102
0.342789
0.340772
0.338439
0.336678
0.334452
0.373789
0.371557
0.369207
0.366787
0.364443
0.362248
0.360285
0.358389
0.356685
0.354921
0.353231
0.35142
0.349688
0.347801
0.346094
0.344264
0.342755
0.341035
0.373819
0.371567
0.36939
0.367242
0.365187
0.363212
0.361379
0.359615
0.357974
0.356346
0.354777
0.353184
0.351646
0.350063
0.348581
0.347061
0.34574
0.344322
0.373825
0.37156
0.369415
0.367353
0.365396
0.36352
0.361752
0.360059
0.358461
0.356911
0.355427
0.353964
0.35256
0.351164
0.349844
0.348529
0.347334
0.346115
0.373827
0.371555
0.369408
0.367365
0.365429
0.363586
0.361839
0.360173
0.358593
0.35708
0.355637
0.354246
0.352916
0.351626
0.3504
0.349207
0.34809
0.346995
0.373827
0.371553
0.3694
0.367358
0.365422
0.363583
0.361837
0.360176
0.358597
0.357093
0.355661
0.354293
0.352988
0.35174
0.350549
0.349409
0.348322
0.347282
0.373826
0.371551
0.369396
0.367351
0.365412
0.36357
0.361821
0.360158
0.358576
0.357071
0.355638
0.354273
0.352971
0.351731
0.350546
0.349418
0.348339
0.347311
0.373825
0.37155
0.369392
0.367346
0.365404
0.36356
0.361808
0.360142
0.358558
0.35705
0.355614
0.354246
0.352943
0.3517
0.350516
0.349385
0.348307
0.347277
0.373825
0.371549
0.36939
0.367343
0.365399
0.363554
0.361799
0.360132
0.358545
0.357035
0.355597
0.354227
0.352922
0.351678
0.350491
0.349358
0.348278
0.347246
0.373825
0.371549
0.36939
0.367342
0.365398
0.363552
0.361797
0.360129
0.358541
0.35703
0.355592
0.35422
0.352914
0.351668
0.35048
0.349346
0.348265
0.347232
0.373825
0.37155
0.369392
0.367345
0.365402
0.363557
0.361803
0.360136
0.358549
0.357039
0.3556
0.35423
0.352924
0.351678
0.350491
0.349357
0.348276
0.347242
0.373826
0.371552
0.369396
0.36735
0.365409
0.363566
0.361814
0.360149
0.358564
0.357056
0.355619
0.354251
0.352945
0.351702
0.350515
0.349384
0.348302
0.347272
0.373827
0.371555
0.369401
0.367359
0.365421
0.363581
0.361832
0.360171
0.358588
0.357083
0.355648
0.354283
0.35298
0.351739
0.350554
0.349425
0.348346
0.347317
0.373828
0.37156
0.36941
0.367374
0.36544
0.363607
0.36186
0.360201
0.358617
0.357113
0.355675
0.354313
0.353008
0.351771
0.350585
0.349458
0.348374
0.347344
0.373832
0.371568
0.369425
0.367406
0.365479
0.36365
0.361889
0.36022
0.358608
0.357091
0.355624
0.354255
0.352929
0.35169
0.350478
0.349343
0.348221
0.347169
0.373841
0.371582
0.369469
0.367505
0.365585
0.363741
0.361898
0.360161
0.358427
0.356851
0.355269
0.353866
0.352448
0.351182
0.349874
0.348694
0.347451
0.346318
0.373871
0.371627
0.369675
0.367924
0.36602
0.364115
0.362005
0.360043
0.35796
0.35619
0.354287
0.352766
0.35107
0.3497
0.348118
0.346807
0.345271
0.343956
0.374018
0.372041
0.370925
0.369855
0.36819
0.366133
0.363383
0.360774
0.357882
0.355455
0.352873
0.350866
0.348555
0.34678
0.344656
0.343064
0.341098
0.339522
0.375326
0.375552
0.378543
0.379996
0.380066
0.378442
0.374738
0.370709
0.36661
0.362417
0.3599
0.356281
0.354491
0.351453
0.350139
0.348351
0.347844
0.347563
0.391349
0.40959
0.442067
0.466912
0.485442
0.497718
0.507935
0.514982
0.524299
0.531558
0.543597
0.553694
0.568449
0.580472
0.597289
0.610859
0.625539
0.637893
0.715085
1.15153
1.42041
1.55134
1.60077
1.59716
1.58351
1.55082
1.51286
1.47411
1.43707
1.40275
1.37172
1.34396
1.31913
1.29745
1.27812
1.26115
1.42744e-08
3.55659e-07
1.82913e-06
7.24442e-06
2.43226e-05
7.3498e-05
0.000199388
0.000409774
0.000682766
0.000979427
0.00125302
0.00147059
0.0016204
0.00168668
0.00167103
0.00160553
0.00148295
0.00127864
0.00107975
0.00091459
0.000760045
0.000611848
0.000469061
0.000337726
0.000220978
0.000130655
7.05854e-05
3.63379e-05
1.88319e-05
1.03311e-05
6.23872e-06
4.49506e-06
4.99716e-06
8.89272e-06
1.51895e-05
0.000106869
0.000250756
0.000601851
0.000971155
0.00115636
0.00109106
0.000895744
0.000705792
0.000603868
0.000624419
0.000778612
0.000994959
0.00176641
0.00335275
0.00854769
0.0273
0.0633401
0.104525
0.127577
0.140472
0.145613
0.159957
0.174015
0.168878
0.155682
0.15018
0.160835
0.174347
0.153265
0.170104
0.176991
0.185447
0.193469
0.201381
0.209117
0.216707
0.224241
0.231613
0.238952
0.246179
0.253351
0.260459
0.267495
0.274487
0.2814
0.288272
0.295067
0.301814
0.308484
0.315095
0.321631
0.328094
0.334481
0.340785
0.347001
0.353124
0.359141
0.36505
0.370835
0.376488
0.381995
0.387342
0.392523
0.397524
0.402354
0.407019
0.41157
0.416069
0.420393
0.424593
0.428659
0.432586
0.436371
0.440016
0.443507
0.446856
0.450043
0.453085
0.455957
0.45868
0.461229
0.463626
0.465847
0.467913
0.469801
0.471527
0.473074
0.474453
0.475657
0.476683
0.477533
0.478192
0.478665
0.478911
0.478923
0.47873
0.478663
0.478483
0.478093
0.477413
0.476919
0.475917
0.47499
0.473748
0.472395
0.470827
0.469112
0.467268
0.465287
0.463167
0.460923
0.458547
0.456063
0.453489
0.450743
0.447973
0.445013
0.442063
0.438915
0.435808
0.432497
0.429267
0.425833
0.42248
0.419015
0.415561
0.412098
0.408633
0.405184
0.401753
0.398349
0.394973
0.391631
0.388329
0.385068
0.381855
0.378687
0.375559
0.372453
0.369321
0.366074
0.362586
0.358536
0.353303
0.337586
7.42541e-08
2.12097e-06
1.41822e-05
5.97032e-05
0.000218925
0.000630618
0.001508
0.00280773
0.00437134
0.00601386
0.00754855
0.00883499
0.00980149
0.0104361
0.0107448
0.0107237
0.0105618
0.0102604
0.00970562
0.00893102
0.00792795
0.00675903
0.00546758
0.00416614
0.00289414
0.00191713
0.00121801
0.00075464
0.000458048
0.000279807
0.000179235
0.000126548
0.000112015
0.000148181
0.000128942
0.00119712
0.00265553
0.00589625
0.00902808
0.0111121
0.0113846
0.0109916
0.00998596
0.0101948
0.0122093
0.0167187
0.0232591
0.0353123
0.0555657
0.07969
0.103821
0.126914
0.145696
0.160713
0.174189
0.18859
0.205111
0.221641
0.236183
0.253189
0.270705
0.28917
0.307352
0.325595
0.344864
0.363052
0.381378
0.399252
0.417027
0.434539
0.451926
0.469159
0.486292
0.503323
0.520291
0.537187
0.554046
0.570848
0.587618
0.604336
0.621021
0.63765
0.654237
0.670761
0.687229
0.703626
0.719951
0.736194
0.752345
0.7684
0.784335
0.800147
0.815815
0.831319
0.846642
0.861755
0.876635
0.89125
0.905571
0.919563
0.933192
0.946427
0.959258
0.971913
0.984282
0.996415
1.00827
1.01985
1.03114
1.04214
1.05281
1.06318
1.0732
1.0829
1.09224
1.10123
1.10985
1.11811
1.12599
1.13348
1.1406
1.14731
1.15363
1.15954
1.16505
1.17013
1.1748
1.17905
1.18288
1.18627
1.18923
1.19177
1.19386
1.19545
1.19625
1.19769
1.19788
1.19848
1.19838
1.19855
1.19799
1.19702
1.19567
1.19393
1.1918
1.18928
1.18639
1.18313
1.17949
1.17552
1.17118
1.16653
1.16152
1.15624
1.15062
1.14475
1.13858
1.1322
1.12555
1.11872
1.11173
1.10459
1.09733
1.08997
1.08254
1.07504
1.06748
1.05988
1.05225
1.04459
1.03692
1.02924
1.02154
1.0138
1.00596
0.997879
0.989352
0.980032
0.967941
0.941249
1.77597e-07
5.27846e-06
3.9928e-05
0.000179733
0.000714783
0.00170585
0.00361492
0.00588723
0.00821219
0.0103509
0.0121664
0.0135882
0.0146049
0.0152445
0.0155467
0.0155346
0.0154057
0.0150988
0.0146123
0.0139913
0.0132294
0.0123229
0.0112508
0.0100167
0.00863714
0.00705741
0.0054163
0.00393575
0.00264549
0.00174818
0.00118944
0.000869563
0.000662934
0.00081205
0.00115945
0.0051233
0.0113049
0.019299
0.025512
0.0294249
0.0311412
0.031769
0.0350456
0.0448797
0.0614064
0.0784125
0.0965992
0.117053
0.137122
0.156573
0.177179
0.197904
0.219593
0.242482
0.267536
0.293966
0.321416
0.348826
0.376056
0.40363
0.430953
0.457954
0.48438
0.510304
0.535657
0.56044
0.584799
0.608745
0.63237
0.655714
0.678836
0.701772
0.72456
0.747222
0.769785
0.792259
0.81466
0.836989
0.859253
0.881446
0.903571
0.925619
0.947588
0.969466
0.991249
1.01293
1.03449
1.05593
1.07723
1.09839
1.11938
1.1402
1.16082
1.18124
1.20142
1.22137
1.24105
1.26046
1.27958
1.29841
1.31693
1.33515
1.35306
1.37065
1.3879
1.40478
1.42129
1.4374
1.45311
1.46839
1.48322
1.49761
1.51153
1.52498
1.53794
1.5504
1.56235
1.57379
1.58471
1.59509
1.60494
1.61425
1.62301
1.63123
1.63888
1.64598
1.65252
1.65848
1.66389
1.66871
1.67298
1.67666
1.67977
1.68229
1.68422
1.68578
1.68647
1.68683
1.68661
1.68603
1.68484
1.6831
1.68082
1.678
1.67462
1.67071
1.66628
1.66132
1.65584
1.64989
1.64343
1.63654
1.62917
1.6214
1.61318
1.60462
1.59563
1.58635
1.57671
1.56682
1.55669
1.54635
1.53584
1.52518
1.5144
1.50353
1.49257
1.48155
1.47047
1.45935
1.44822
1.43709
1.42596
1.41482
1.40363
1.39231
1.38066
1.36842
1.35359
1.32849
6.86608e-07
2.05565e-05
0.000160097
0.000633507
0.00199368
0.00465913
0.00806927
0.0114443
0.0144252
0.0168293
0.0186083
0.0197939
0.0204576
0.0206817
0.0206077
0.0203491
0.0198589
0.0192465
0.0185421
0.017766
0.0169191
0.0160013
0.014996
0.0138837
0.0126459
0.0112605
0.00973857
0.00814607
0.00663331
0.00513855
0.00400874
0.00293978
0.00277304
0.00375514
0.00861098
0.0206592
0.0342388
0.0451216
0.0531187
0.0595467
0.067061
0.0777695
0.0916074
0.106843
0.121877
0.137706
0.155584
0.175935
0.197102
0.220965
0.246607
0.274225
0.303533
0.33426
0.36607
0.398469
0.431072
0.463522
0.49574
0.527625
0.559076
0.590001
0.620349
0.650171
0.679461
0.708305
0.736758
0.764877
0.792722
0.820341
0.847777
0.875065
0.902235
0.929306
0.956297
0.983218
1.01008
1.03687
1.06361
1.09027
1.11687
1.14338
1.16981
1.19614
1.22235
1.24845
1.27441
1.30023
1.32588
1.35137
1.37666
1.40176
1.42664
1.45129
1.47568
1.49981
1.52366
1.54721
1.57045
1.59337
1.61595
1.63818
1.66003
1.68147
1.70249
1.72306
1.74317
1.76278
1.78189
1.80046
1.81849
1.83595
1.85283
1.86912
1.88481
1.89987
1.91431
1.92811
1.94125
1.95374
1.96557
1.97673
1.98722
1.99704
2.00618
2.01462
2.02238
2.02945
2.03583
2.04151
2.0465
2.05079
2.05438
2.05727
2.05947
2.06097
2.06159
2.06166
2.06103
2.05982
2.05792
2.05536
2.05213
2.04823
2.04367
2.03846
2.03261
2.02613
2.01903
2.01135
2.00307
1.99425
1.98488
1.97502
1.96464
1.95381
1.94251
1.93083
1.91875
1.90635
1.89364
1.88069
1.86751
1.85415
1.84064
1.82701
1.81327
1.79945
1.78555
1.77162
1.75767
1.74372
1.7298
1.71592
1.70207
1.68821
1.6742
1.65986
1.64348
1.61995
2.27904e-06
6.83302e-05
0.000508436
0.00197885
0.00546411
0.0105132
0.015341
0.0193077
0.022217
0.0241213
0.0251895
0.0256186
0.0255656
0.0252726
0.0246747
0.0239343
0.0231057
0.0222292
0.0213285
0.0204171
0.0194924
0.0185498
0.0175735
0.0165446
0.0154375
0.0142238
0.0128829
0.0114502
0.0100318
0.00868118
0.00714105
0.00691285
0.00905541
0.0176642
0.0354997
0.0537846
0.0693658
0.081491
0.0913632
0.100898
0.111309
0.12276
0.135257
0.148826
0.165011
0.184273
0.206167
0.23088
0.25782
0.287074
0.317896
0.350165
0.38343
0.417431
0.451894
0.486589
0.521335
0.556001
0.590506
0.624749
0.6587
0.692295
0.725509
0.75837
0.790884
0.823096
0.855044
0.886769
0.918312
0.949709
0.980993
1.01219
1.04331
1.07439
1.10542
1.13642
1.16737
1.19829
1.22916
1.25998
1.29073
1.3214
1.35199
1.38247
1.41283
1.44306
1.47314
1.50307
1.53282
1.56238
1.59173
1.62085
1.64974
1.67836
1.70671
1.73476
1.7625
1.7899
1.81695
1.84363
1.86992
1.89578
1.92119
1.94614
1.97058
1.9945
2.01786
2.04065
2.06284
2.0844
2.10532
2.12557
2.14513
2.16399
2.18213
2.19954
2.2162
2.2321
2.24724
2.26159
2.27517
2.28796
2.29995
2.31115
2.32155
2.33114
2.33992
2.34789
2.35504
2.36138
2.36691
2.37163
2.37552
2.3786
2.38087
2.3822
2.38266
2.38237
2.38134
2.37953
2.37694
2.37357
2.36942
2.3645
2.35882
2.35239
2.34522
2.33733
2.32872
2.31945
2.30949
2.29891
2.28771
2.27593
2.26357
2.25069
2.23728
2.22342
2.20911
2.19441
2.17938
2.16403
2.14843
2.13261
2.11661
2.10046
2.08417
2.06779
2.05132
2.0348
2.01827
2.00176
1.9853
1.96892
1.95264
1.93647
1.92032
1.90406
1.88628
1.86316
7.1477e-06
0.000210303
0.00151128
0.0053699
0.0126418
0.0193139
0.0242562
0.0274366
0.02921
0.0299863
0.0300591
0.0297724
0.0291053
0.0282126
0.0272033
0.0261406
0.0250688
0.0240175
0.0230012
0.0220249
0.0210803
0.0201573
0.0192352
0.0182887
0.0172916
0.016208
0.0149789
0.0135594
0.0119636
0.011039
0.0120091
0.0172554
0.0306646
0.0521172
0.074182
0.092792
0.106815
0.116963
0.125275
0.133597
0.142973
0.154254
0.168655
0.186222
0.207045
0.23116
0.257968
0.287057
0.317817
0.34995
0.383079
0.417021
0.451571
0.48661
0.522019
0.557705
0.593577
0.629567
0.6656
0.701598
0.737517
0.773318
0.808973
0.844475
0.879828
0.915047
0.950151
0.985163
1.02011
1.05501
1.08989
1.12476
1.15964
1.19452
1.22942
1.26433
1.29925
1.33415
1.36904
1.40389
1.4387
1.47343
1.50808
1.54263
1.57705
1.61134
1.64548
1.67944
1.71321
1.74678
1.78012
1.81321
1.84603
1.87857
1.9108
1.94269
1.97424
2.00541
2.03618
2.06652
2.09641
2.12581
2.1547
2.18306
2.21084
2.23802
2.26457
2.29046
2.31566
2.34014
2.36387
2.38684
2.409
2.43036
2.45089
2.47057
2.48938
2.50732
2.52437
2.54051
2.55576
2.57009
2.58351
2.59601
2.60758
2.61823
2.62795
2.63673
2.64459
2.65151
2.6575
2.66256
2.66669
2.66988
2.67213
2.67328
2.67355
2.67291
2.6714
2.669
2.66572
2.66155
2.6565
2.65058
2.6438
2.63618
2.62773
2.61847
2.60841
2.59759
2.58602
2.57374
2.56076
2.54714
2.53287
2.51801
2.50257
2.4866
2.47014
2.45324
2.43595
2.41832
2.40038
2.38218
2.36377
2.34518
2.32645
2.30758
2.28863
2.26961
2.25058
2.23158
2.21266
2.19386
2.17522
2.15679
2.13851
2.12031
2.10097
2.07737
2.25119e-05
0.000625581
0.00412364
0.0130173
0.0221891
0.0283261
0.0318379
0.0335967
0.0342307
0.0341352
0.0335941
0.032621
0.0314345
0.0301325
0.0287937
0.0274767
0.0262199
0.0250451
0.023958
0.0229539
0.0220177
0.0211293
0.0202571
0.0193628
0.0184119
0.0174877
0.0167069
0.0163619
0.0171017
0.0207323
0.0299689
0.0476816
0.0704328
0.0924716
0.111351
0.125185
0.134521
0.141573
0.148523
0.157109
0.168945
0.184225
0.203042
0.225334
0.250691
0.278592
0.308327
0.339428
0.371545
0.4045
0.43815
0.472415
0.507228
0.542555
0.578359
0.614601
0.651229
0.688187
0.725409
0.762839
0.800432
0.838144
0.87594
0.913802
0.951716
0.989679
1.0277
1.06578
1.10393
1.14216
1.18049
1.21891
1.25743
1.29604
1.33474
1.37351
1.41235
1.45122
1.49011
1.52899
1.56785
1.60665
1.64538
1.68401
1.72252
1.76089
1.7991
1.83712
1.87494
1.91253
1.94988
1.98696
2.02374
2.06021
2.09634
2.1321
2.16746
2.20241
2.2369
2.27092
2.30442
2.33739
2.36978
2.40156
2.4327
2.46317
2.49292
2.52193
2.55016
2.57757
2.60413
2.62982
2.6546
2.67846
2.70138
2.72332
2.74428
2.76424
2.78318
2.8011
2.81798
2.83383
2.84864
2.8624
2.87512
2.88678
2.89739
2.90695
2.91545
2.9229
2.92931
2.93466
2.93896
2.94222
2.94439
2.94537
2.94539
2.94437
2.94236
2.93935
2.93536
2.93037
2.92441
2.91748
2.9096
2.90079
2.89106
2.88043
2.86892
2.85656
2.84339
2.82941
2.81468
2.79921
2.78305
2.76623
2.74876
2.73071
2.71212
2.69304
2.67352
2.65361
2.63336
2.61281
2.59201
2.57101
2.54984
2.52852
2.50709
2.4856
2.46409
2.44261
2.42124
2.40002
2.37902
2.35829
2.33783
2.31757
2.29645
2.27173
6.74451e-05
0.00173058
0.00985399
0.0227507
0.031027
0.0355231
0.0377278
0.0385021
0.0383585
0.0376179
0.0363679
0.0348533
0.0332034
0.0315221
0.0298888
0.0283577
0.0269595
0.0257052
0.0245893
0.023597
0.0227043
0.0218831
0.0210824
0.0202611
0.0195179
0.0191045
0.019712
0.0227046
0.0302568
0.044599
0.0645166
0.085918
0.106392
0.123688
0.136554
0.145242
0.15169
0.158516
0.167718
0.180226
0.196393
0.216147
0.239168
0.264983
0.292957
0.322496
0.353121
0.384582
0.416751
0.449576
0.483032
0.517115
0.551825
0.587173
0.623154
0.659747
0.696916
0.734623
0.772823
0.811465
0.850503
0.889896
0.929605
0.969601
1.00986
1.05038
1.09113
1.13213
1.17335
1.21481
1.2565
1.29841
1.34053
1.38285
1.42535
1.46799
1.51077
1.55365
1.59658
1.63955
1.68252
1.72545
1.76833
1.81111
1.85377
1.89628
1.93863
1.98078
2.02271
2.0644
2.10582
2.14695
2.18775
2.2282
2.26828
2.30795
2.34718
2.38595
2.42421
2.46195
2.49913
2.5357
2.57163
2.60689
2.64144
2.67523
2.70823
2.74039
2.77168
2.80206
2.83148
2.85992
2.88735
2.91373
2.93904
2.96326
2.98636
3.00833
3.02915
3.04882
3.06733
3.08467
3.10083
3.11582
3.12963
3.14226
3.15371
3.16399
3.17309
3.18101
3.18777
3.19336
3.19778
3.20104
3.20307
3.20386
3.20355
3.20212
3.19958
3.19593
3.19118
3.18535
3.17845
3.17048
3.16147
3.15144
3.1404
3.12838
3.11541
3.1015
3.0867
3.07102
3.05451
3.03721
3.01914
3.00033
2.98084
2.9607
2.93997
2.9187
2.89694
2.87476
2.85219
2.82929
2.80611
2.7827
2.75908
2.7353
2.7114
2.68742
2.66342
2.63947
2.61563
2.59197
2.56858
2.54551
2.52277
2.50035
2.47723
2.45091
0.000177413
0.00416403
0.01879
0.031607
0.0383903
0.0416714
0.0429453
0.0429389
0.0421472
0.0406928
0.0388695
0.0368464
0.0347667
0.0327432
0.0308592
0.0291675
0.0276949
0.0264487
0.0254224
0.0246107
0.0240057
0.0236463
0.0236316
0.0241861
0.0256605
0.0286969
0.0344163
0.0448269
0.060011
0.0780066
0.0969373
0.114758
0.129929
0.14162
0.150263
0.157396
0.16516
0.175258
0.188619
0.205492
0.225711
0.248869
0.274447
0.301888
0.330659
0.360365
0.39078
0.421826
0.453491
0.485801
0.518786
0.552488
0.586942
0.622174
0.658187
0.694983
0.732545
0.77085
0.809862
0.849543
0.889853
0.93075
0.9722
1.01417
1.05663
1.09956
1.14294
1.18675
1.23098
1.27561
1.32063
1.36602
1.41176
1.4578
1.50414
1.55072
1.59751
1.64446
1.69153
1.73866
1.78583
1.83298
1.88009
1.92711
1.97401
2.02076
2.06733
2.11368
2.15981
2.20566
2.25122
2.29646
2.34135
2.38585
2.42993
2.47356
2.5167
2.55934
2.60142
2.64292
2.6838
2.72402
2.76353
2.80229
2.84027
2.87741
2.91367
2.949
2.98337
3.01671
3.049
3.08019
3.11024
3.13913
3.16682
3.19329
3.21851
3.24246
3.26513
3.28651
3.30659
3.32536
3.34282
3.35897
3.37381
3.38734
3.39957
3.41049
3.4201
3.42842
3.43545
3.44119
3.44565
3.44884
3.45066
3.4512
3.4505
3.44856
3.44541
3.44105
3.4355
3.42876
3.42086
3.41181
3.40162
3.39033
3.37794
3.3645
3.35002
3.33454
3.31809
3.30069
3.28238
3.26321
3.24321
3.22242
3.20088
3.17863
3.15575
3.13229
3.1083
3.08384
3.05896
3.03371
3.00815
2.98232
2.95626
2.93001
2.90363
2.87716
2.85067
2.82423
2.79791
2.7718
2.74597
2.72051
2.69543
2.67073
2.64548
2.61725
0.000401181
0.00857503
0.0280269
0.039585
0.0450911
0.047467
0.0480026
0.0473538
0.0458666
0.0438243
0.041457
0.0389582
0.0364943
0.0341942
0.0321499
0.0304167
0.029022
0.0279666
0.0272183
0.0268455
0.0267835
0.0272677
0.0286801
0.0316876
0.0371906
0.0459455
0.0580237
0.0724232
0.0881312
0.104156
0.119239
0.13235
0.143163
0.152079
0.160244
0.169226
0.180402
0.19456
0.211883
0.232155
0.254973
0.279864
0.306354
0.334013
0.362508
0.391647
0.421356
0.451654
0.482585
0.514216
0.546612
0.579838
0.613936
0.648947
0.684893
0.721791
0.75964
0.798429
0.838137
0.878738
0.9202
0.962489
1.00557
1.04942
1.09399
1.13927
1.18522
1.23182
1.27905
1.32687
1.37525
1.42417
1.47357
1.52342
1.57368
1.62427
1.67516
1.72629
1.77758
1.82898
1.88044
1.93191
1.98333
2.03468
2.08591
2.13697
2.18785
2.23849
2.28886
2.33894
2.3887
2.4381
2.48711
2.5357
2.58381
2.63143
2.67852
2.72503
2.77095
2.81622
2.8608
2.90465
2.94773
2.98998
3.03137
3.07183
3.11132
3.14979
3.18719
3.22346
3.25856
3.29245
3.32508
3.35641
3.38641
3.41506
3.44232
3.46817
3.4926
3.51559
3.53714
3.55725
3.57591
3.59312
3.60888
3.6232
3.63609
3.64753
3.65755
3.66615
3.67333
3.67911
3.68349
3.68649
3.68802
3.68819
3.687
3.68446
3.68061
3.67545
3.669
3.66128
3.65231
3.6421
3.63068
3.61806
3.60428
3.58937
3.57334
3.55624
3.5381
3.51895
3.49882
3.47776
3.45581
3.433
3.40939
3.38504
3.36
3.33434
3.30812
3.28138
3.2542
3.2266
3.19866
3.17042
3.14192
3.11321
3.08435
3.0554
3.02642
2.99749
2.9687
2.94011
2.91183
2.88393
2.85646
2.82942
2.80195
2.77193
0.000780283
0.015142
0.0363422
0.0467661
0.0514724
0.0532285
0.0532059
0.0519805
0.0499327
0.0473617
0.0445282
0.0416573
0.0389423
0.0365324
0.0345329
0.0330161
0.0320203
0.0316129
0.0316739
0.0324609
0.0341749
0.0372997
0.0421894
0.049153
0.0582788
0.0693581
0.0819572
0.0953486
0.108737
0.12142
0.132905
0.143084
0.152321
0.161482
0.171679
0.183885
0.198668
0.216151
0.236138
0.258272
0.282161
0.307423
0.333725
0.360805
0.388494
0.416726
0.445513
0.474916
0.505014
0.535899
0.567649
0.600336
0.63402
0.668756
0.704583
0.741529
0.77961
0.81883
0.859184
0.900657
0.943233
0.986883
1.03158
1.0773
1.12399
1.17164
1.22021
1.26965
1.31994
1.37102
1.42286
1.4754
1.52858
1.58235
1.63662
1.69134
1.74643
1.80182
1.85743
1.91319
1.96902
2.02488
2.0807
2.13644
2.19206
2.2475
2.30274
2.3577
2.41238
2.46671
2.52069
2.57426
2.6274
2.68006
2.7322
2.78378
2.83477
2.88513
2.93482
2.9838
3.03202
3.07944
3.12601
3.17166
3.21636
3.26004
3.30265
3.34414
3.38446
3.42354
3.46133
3.49777
3.53284
3.56648
3.59865
3.62933
3.65847
3.68607
3.7121
3.73655
3.75941
3.78069
3.80037
3.81847
3.83499
3.84994
3.86331
3.87511
3.88536
3.89406
3.90124
3.9069
3.91105
3.91369
3.91482
3.91447
3.91265
3.90938
3.9047
3.89863
3.89119
3.88238
3.87225
3.86079
3.84805
3.83404
3.8188
3.80235
3.78473
3.76597
3.7461
3.72517
3.7032
3.68023
3.65631
3.63148
3.6058
3.57934
3.55215
3.52431
3.49587
3.46689
3.43742
3.40751
3.37722
3.34659
3.31568
3.28453
3.25321
3.2218
3.19036
3.15898
3.12772
3.09668
3.06594
3.0356
3.0057
2.97629
2.94655
2.91459
0.00128233
0.0222769
0.043987
0.053846
0.0580515
0.0593195
0.0588442
0.0571433
0.0546386
0.0516768
0.0485617
0.0455526
0.0428712
0.0406983
0.0391501
0.0384157
0.0383296
0.0390719
0.0407367
0.043541
0.047672
0.0532138
0.0602574
0.0687544
0.0785044
0.0891979
0.100388
0.1116
0.122462
0.132785
0.142589
0.152203
0.162255
0.173478
0.186494
0.201656
0.219035
0.238463
0.259665
0.282329
0.30617
0.330937
0.356435
0.382533
0.409167
0.436345
0.464121
0.492583
0.521827
0.551952
0.583047
0.615197
0.648477
0.682954
0.71868
0.755699
0.794043
0.833733
0.874781
0.917189
0.960952
1.00605
1.05247
1.10016
1.14911
1.19926
1.25058
1.30302
1.35652
1.41103
1.46648
1.52281
1.57993
1.63775
1.69618
1.75513
1.81453
1.87427
1.93428
1.99446
2.05473
2.11501
2.17526
2.23542
2.29544
2.35527
2.41486
2.47415
2.53309
2.59164
2.64977
2.70745
2.76464
2.82129
2.87736
2.93281
2.98759
3.04166
3.09499
3.14753
3.19923
3.25005
3.29992
3.34879
3.3966
3.44329
3.48882
3.53311
3.57612
3.61777
3.65801
3.69678
3.73404
3.76974
3.80384
3.8363
3.86708
3.89618
3.92355
3.94921
3.97312
3.99531
4.01577
4.03451
4.05154
4.06686
4.08048
4.09241
4.10265
4.11123
4.11817
4.12349
4.1272
4.12931
4.12983
4.12879
4.12615
4.12199
4.11633
4.1092
4.10063
4.09062
4.07921
4.06641
4.05225
4.03677
4.01998
4.00194
3.98267
3.96221
3.94059
3.91786
3.89404
3.86916
3.84326
3.81642
3.78869
3.76015
3.73085
3.70087
3.67026
3.63908
3.60738
3.57521
3.54263
3.50967
3.47639
3.44286
3.40915
3.37533
3.34149
3.3077
3.27404
3.24059
3.20743
3.17467
3.14236
3.11058
3.07856
3.04463
0.00190804
0.0287846
0.0511442
0.0609122
0.0648729
0.0658553
0.0650238
0.0629504
0.0601284
0.0569864
0.0538831
0.0510996
0.0488615
0.0474205
0.0468747
0.0470407
0.0482103
0.0503716
0.0535658
0.0578614
0.0632858
0.0698094
0.0773403
0.0857127
0.094715
0.104131
0.113732
0.123367
0.132974
0.142646
0.152661
0.163436
0.175413
0.188941
0.204216
0.221248
0.239916
0.26001
0.281313
0.303609
0.326728
0.350531
0.374928
0.399875
0.425374
0.451477
0.478262
0.505826
0.534273
0.563713
0.594241
0.625959
0.658949
0.693298
0.72907
0.766323
0.805101
0.845447
0.887389
0.930944
0.97612
1.02291
1.07129
1.12124
1.17273
1.22569
1.28007
1.3358
1.39282
1.45105
1.51039
1.57075
1.63202
1.69407
1.75679
1.82006
1.88381
1.94792
2.01232
2.07689
2.14155
2.20621
2.27081
2.33532
2.39966
2.4638
2.52764
2.59114
2.65421
2.71682
2.77895
2.84056
2.9016
2.96204
3.02183
3.08092
3.13925
3.1968
3.2535
3.30933
3.36422
3.41814
3.47101
3.52277
3.57336
3.62273
3.67081
3.71755
3.76289
3.80675
3.84907
3.8898
3.92888
3.96626
4.0019
4.03577
4.06783
4.09805
4.12642
4.1529
4.17751
4.20025
4.22114
4.24017
4.25737
4.27273
4.28626
4.29799
4.30791
4.31606
4.32248
4.32717
4.33018
4.3315
4.33117
4.32921
4.32552
4.32025
4.31343
4.30507
4.2952
4.28384
4.27102
4.25675
4.24108
4.22403
4.20563
4.18593
4.16496
4.14277
4.11938
4.09484
4.06918
4.0424
4.01456
3.98575
3.95602
3.92546
3.89412
3.86206
3.82936
3.79606
3.76222
3.72788
3.69311
3.6579
3.62235
3.58654
3.55053
3.51442
3.47828
3.44219
3.40621
3.37043
3.33494
3.29982
3.26516
3.23106
3.19681
3.16098
0.00271138
0.0346563
0.0583695
0.0682459
0.0720337
0.0727837
0.0716222
0.0692489
0.0662366
0.0631159
0.0603379
0.05816
0.0567817
0.0562746
0.0565044
0.0577708
0.0599942
0.0631311
0.0671826
0.0721229
0.0778973
0.0844313
0.0916178
0.0993523
0.107538
0.116104
0.124997
0.134246
0.143955
0.154325
0.165597
0.178007
0.191731
0.206846
0.223337
0.241102
0.260006
0.27989
0.300619
0.322071
0.344165
0.366845
0.390094
0.413927
0.438389
0.463555
0.489517
0.516384
0.544258
0.573249
0.603464
0.635013
0.667995
0.702508
0.738634
0.776454
0.816035
0.857437
0.900707
0.945879
0.992968
1.04197
1.09288
1.14565
1.20024
1.25657
1.31457
1.37413
1.43516
1.49753
1.56111
1.62579
1.6914
1.75779
1.82482
1.89235
1.96032
2.02864
2.09723
2.16599
2.23482
2.30363
2.37237
2.44098
2.50942
2.5776
2.64544
2.71287
2.77976
2.84612
2.91191
2.9771
3.04165
3.10552
3.16864
3.23097
3.29245
3.35304
3.41268
3.47134
3.52896
3.58549
3.64087
3.69502
3.74789
3.79941
3.84953
3.89819
3.94532
3.99085
4.03473
4.07687
4.11724
4.15577
4.19244
4.22719
4.26
4.29085
4.31971
4.34655
4.3714
4.39423
4.41508
4.43394
4.45084
4.46578
4.47879
4.48988
4.49907
4.5064
4.51191
4.51563
4.51759
4.51781
4.51637
4.51311
4.50813
4.50153
4.49332
4.48352
4.47217
4.45929
4.44491
4.42905
4.41175
4.39305
4.37297
4.35156
4.32885
4.3049
4.27974
4.25341
4.22595
4.19731
4.1676
4.13689
4.10526
4.07278
4.0395
4.00549
3.9708
3.93551
3.89965
3.86328
3.82645
3.78914
3.75146
3.7135
3.67536
3.6371
3.59881
3.56055
3.5224
3.48444
3.44673
3.40938
3.37248
3.33617
3.29979
3.26221
0.00356944
0.0406255
0.065442
0.0755598
0.0792736
0.0798434
0.078282
0.0754848
0.0723628
0.0695585
0.0674266
0.0661554
0.065681
0.0657998
0.0669197
0.0689519
0.0718201
0.0754645
0.0798469
0.0849276
0.0906605
0.0970033
0.103914
0.111372
0.119349
0.12787
0.136977
0.146764
0.157345
0.168851
0.181381
0.195005
0.209745
0.22556
0.242386
0.26012
0.278673
0.29795
0.317891
0.338447
0.359602
0.381357
0.403734
0.426788
0.45059
0.475232
0.500788
0.527375
0.555103
0.5841
0.614486
0.646387
0.679924
0.715211
0.752363
0.791472
0.832637
0.875925
0.921411
0.969125
1.0191
1.07131
1.12572
1.18227
1.24088
1.30146
1.36388
1.42799
1.49362
1.56058
1.62869
1.69779
1.76771
1.8383
1.90937
1.98075
2.05245
2.12444
2.19667
2.2691
2.3416
2.41405
2.48644
2.55868
2.6307
2.70241
2.77372
2.84452
2.91471
2.98428
3.0532
3.12143
3.18893
3.25565
3.32152
3.38648
3.45049
3.51347
3.57539
3.63621
3.69588
3.75434
3.81153
3.86738
3.92182
3.97479
4.02624
4.07611
4.12434
4.17085
4.21558
4.25846
4.29942
4.33843
4.37543
4.41041
4.44332
4.47414
4.50285
4.52945
4.55392
4.57626
4.59646
4.61455
4.63055
4.64449
4.65639
4.66629
4.67422
4.68023
4.68436
4.68664
4.68713
4.6859
4.68283
4.67794
4.67135
4.66309
4.65321
4.64171
4.62865
4.61404
4.59791
4.5803
4.56124
4.54077
4.51891
4.49572
4.47123
4.44548
4.41853
4.39042
4.36117
4.33078
4.29931
4.26686
4.23347
4.19922
4.16416
4.12835
4.09184
4.05471
4.01701
3.97879
3.94009
3.90086
3.86126
3.82138
3.7813
3.7411
3.70086
3.66064
3.62051
3.58055
3.5408
3.5014
3.46244
3.4241
3.38574
3.34663
0.00449381
0.0466997
0.0726162
0.0829394
0.0865252
0.0868477
0.0847989
0.0817755
0.078866
0.0766259
0.0753025
0.0747911
0.0747943
0.0756261
0.0773557
0.0798773
0.0831311
0.0870563
0.0916339
0.0968399
0.102665
0.109106
0.116163
0.123859
0.132218
0.141299
0.151141
0.16182
0.173372
0.185848
0.199246
0.213568
0.228774
0.244809
0.261617
0.27913
0.29732
0.316141
0.335598
0.355677
0.376406
0.397807
0.419956
0.442945
0.466877
0.491769
0.517705
0.544838
0.573289
0.60322
0.634759
0.668074
0.703292
0.74058
0.780045
0.821837
0.866034
0.912732
0.961962
1.01377
1.06816
1.12505
1.18434
1.2459
1.30962
1.37534
1.44291
1.51212
1.58276
1.65453
1.72714
1.80034
1.87409
1.9483
2.02282
2.09748
2.17238
2.2475
2.32278
2.39814
2.47339
2.5486
2.62378
2.69887
2.77365
2.84804
2.92192
2.99522
3.06788
3.13985
3.21107
3.28148
3.35105
3.4197
3.48739
3.55403
3.61956
3.68394
3.74713
3.80908
3.86977
3.92914
3.98712
4.04363
4.09862
4.15202
4.20379
4.25387
4.3022
4.34871
4.39333
4.43598
4.4766
4.51515
4.55159
4.58588
4.61801
4.64793
4.67562
4.70108
4.72429
4.74527
4.76402
4.78057
4.79494
4.80717
4.81729
4.82534
4.83135
4.8354
4.83754
4.83782
4.83642
4.8331
4.82791
4.821
4.81239
4.80212
4.79022
4.77674
4.7617
4.74514
4.72708
4.70756
4.68662
4.66428
4.64059
4.61558
4.58929
4.56177
4.53306
4.5032
4.47223
4.44022
4.40717
4.37314
4.33818
4.30233
4.26566
4.22822
4.19008
4.15129