/*--------------------------------*- C++ -*----------------------------------*\
  =========                 |
  \\      /  F ield         | OpenFOAM: The Open Source CFD Toolbox
   \\    /   O peration     | Website:  https://openfoam.org
    \\  /    A nd           | Version:  13
     \\/     M anipulation  |
\*---------------------------------------------------------------------------*/
FoamFile
{
    format      ascii;
    class       volScalarField;
    location    "1600";
    object      nut;
}
// * * * * * * * * * * * * * * * * * * * * * * * * * * * * * * * * * * * * * //

dimensions      [0 2 -1 0 0 0 0];

internalField   nonuniform List<scalar> 
12225
(
5.26273e-06
1.19437e-05
1.57368e-05
1.80348e-05
1.76458e-05
1.74145e-05
2.46222e-05
2.31081e-05
1.83057e-05
2.05144e-05
1.7927e-05
1.95436e-05
2.12488e-05
1.79803e-05
2.07391e-05
1.80702e-05
1.74096e-05
1.73768e-05
7.47118e-05
1.48816e-05
2.12746e-05
2.95508e-05
3.14528e-05
3.11121e-05
3.36844e-05
3.2836e-05
3.01511e-05
2.82325e-05
2.94551e-05
2.72038e-05
3.18108e-05
3.30902e-05
3.45776e-05
3.60651e-05
4.16033e-05
4.24944e-05
4.09115e-05
5.39892e-05
4.08854e-05
3.23823e-05
2.41666e-05
1.65674e-05
1.63536e-05
1.68868e-05
1.70409e-05
1.60914e-05
1.51481e-05
1.44312e-05
1.59776e-05
1.7278e-05
1.87385e-05
2.04953e-05
2.17447e-05
2.32566e-05
0.000208412
5.07979e-05
4.0976e-05
2.63395e-05
1.54393e-05
1.1069e-05
8.92796e-06
8.77014e-06
8.61911e-06
8.8902e-06
8.47992e-06
1.15559e-05
1.34952e-05
1.68063e-05
1.84899e-05
2.09601e-05
2.33697e-05
2.4773e-05
0.00357547
4.79892e-05
3.46411e-05
2.73683e-05
1.60612e-05
1.32182e-05
1.26963e-05
1.23642e-05
1.31344e-05
1.30705e-05
1.46163e-05
1.76766e-05
2.15199e-05
3.29866e-05
3.72782e-05
4.37875e-05
4.89855e-05
5.07708e-05
0.00437301
8.0651e-05
3.45279e-05
2.93993e-05
2.2369e-05
2.10921e-05
2.24745e-05
2.3672e-05
2.4673e-05
2.91575e-05
3.06621e-05
3.44603e-05
4.11318e-05
5.82012e-05
7.00726e-05
8.7629e-05
0.000102686
0.000110767
0.005256
0.000158615
6.9625e-05
6.1682e-05
5.45018e-05
5.53678e-05
5.22304e-05
5.7183e-05
7.23158e-05
7.80509e-05
8.05593e-05
9.11441e-05
0.000118146
0.000136428
0.000151065
0.000170173
0.000184126
0.000192877
0.00128519
0.000592533
0.000273847
0.00021023
0.000179841
0.000176367
0.000170138
0.000169117
0.0001862
0.00020425
0.000206895
0.000226666
0.0002525
0.000280042
0.000300095
0.000307854
0.000319646
0.000325601
0.00086663
0.000727248
0.000600425
0.000480106
0.000447452
0.000422015
0.000404373
0.000388382
0.00038157
0.000378697
0.000379186
0.000380428
0.000395809
0.000405275
0.000411594
0.0004441
0.000451495
0.00045496
0.000860628
0.000835523
0.000773267
0.000733661
0.000673736
0.000654052
0.000646106
0.00061027
0.00059871
0.000586709
0.000579334
0.000571886
0.000575169
0.000572212
0.000572028
0.000598517
0.000598973
0.000597287
0.000854652
0.000849678
0.000842455
0.000828297
0.000800049
0.000787929
0.000781568
0.00075879
0.000749363
0.000739091
0.000731324
0.000723393
0.000718926
0.000713768
0.000719162
0.000731668
0.00072633
0.000721654
0.000851249
0.000851692
0.00084962
0.000845872
0.000840409
0.000834034
0.000827824
0.000821048
0.000815166
0.00080904
0.000804018
0.000802993
0.000801722
0.000794904
0.000791132
0.00079384
0.000790702
0.000789544
0.000851359
0.000850917
0.000849975
0.000848798
0.000847373
0.000845713
0.00084393
0.000841859
0.000840029
0.000837923
0.000835821
0.000833953
0.000832704
0.000830809
0.000829144
0.000827437
0.000826333
0.000824058
0.000851497
0.000850707
0.000849901
0.000849073
0.000848288
0.000847471
0.000846661
0.000845782
0.000844986
0.0008441
0.000843284
0.000842356
0.000841607
0.000840657
0.000839904
0.000838891
0.00083821
0.000837151
0.000851535
0.000850676
0.000849866
0.000849079
0.000848345
0.000847626
0.000846954
0.000846282
0.000845662
0.000845035
0.000844456
0.000843859
0.000843313
0.000842738
0.000842218
0.00084166
0.000841174
0.000840642
0.000851538
0.000850673
0.000849856
0.000849073
0.000848335
0.000847626
0.000846956
0.000846311
0.000845701
0.000845113
0.000844555
0.000844016
0.000843505
0.000843008
0.000842537
0.000842078
0.000841644
0.000841222
0.000851537
0.000850673
0.000849852
0.00084907
0.000848327
0.000847619
0.000846945
0.000846301
0.000845688
0.000845102
0.000844543
0.000844008
0.000843497
0.000843008
0.000842541
0.000842093
0.000841665
0.000841254
0.000851539
0.000850677
0.000849857
0.000849077
0.000848334
0.000847627
0.000846952
0.000846309
0.000845694
0.000845108
0.000844547
0.000844011
0.000843499
0.000843009
0.00084254
0.000842092
0.000841662
0.000841251
0.000851537
0.000850674
0.000849851
0.000849069
0.000848324
0.000847614
0.000846938
0.000846292
0.000845676
0.000845088
0.000844525
0.000843988
0.000843474
0.000842982
0.000842512
0.000842061
0.00084163
0.000841217
0.000851536
0.000850674
0.00084985
0.00084907
0.000848324
0.000847616
0.000846938
0.000846295
0.000845678
0.000845091
0.000844527
0.000843991
0.000843476
0.000842984
0.000842514
0.000842063
0.000841632
0.000841219
0.000851535
0.000850678
0.000849851
0.000849078
0.000848327
0.000847629
0.000846946
0.000846311
0.000845688
0.000845108
0.000844539
0.000844005
0.000843486
0.000842995
0.00084252
0.000842071
0.000841631
0.00084122
0.000851537
0.000850683
0.000849847
0.0008491
0.000848326
0.000847656
0.00084694
0.000846333
0.000845662
0.000845098
0.000844464
0.000843928
0.00084335
0.00084283
0.000842304
0.00084182
0.000841295
0.000840863
0.000851566
0.000850663
0.000849854
0.000849154
0.000848305
0.000847603
0.000846718
0.000846022
0.000845074
0.000844333
0.000843263
0.000842494
0.000841443
0.000840623
0.000839626
0.000838812
0.00083767
0.000836977
0.000851698
0.000850538
0.000849964
0.000849131
0.000847605
0.000845874
0.000843708
0.000841655
0.000839094
0.000836476
0.00083334
0.000830435
0.000827204
0.000824135
0.000821333
0.000818533
0.000815348
0.000812831
0.000851946
0.000850949
0.000848763
0.000845037
0.000838569
0.000829988
0.000820606
0.000812237
0.00080185
0.000792654
0.000781655
0.000773237
0.000763692
0.000756536
0.000747923
0.00074143
0.000732803
0.00072667
0.000853986
0.000843889
0.000828081
0.000812771
0.000779073
0.000751533
0.00072036
0.000695819
0.000667801
0.000647361
0.000624432
0.000608704
0.00059084
0.000578402
0.000563717
0.000553232
0.000540032
0.000531079
0.000846582
0.000785323
0.000705796
0.000641106
0.000572538
0.000519814
0.000470516
0.000434887
0.000400428
0.000377275
0.000353607
0.000338792
0.000321989
0.000311778
0.000299117
0.000291305
0.000281096
0.000274743
0.000771263
0.000517628
0.000356894
0.000281789
0.000234181
0.000202131
0.000177412
0.000160365
0.000146139
0.000136338
0.000127994
0.000122107
0.000116684
0.000112807
0.000108989
0.000106385
0.00010358
0.00010188
0.000376438
0.000104131
7.40179e-05
6.3562e-05
5.84159e-05
5.55111e-05
5.38933e-05
5.28773e-05
5.28378e-05
5.29745e-05
5.40824e-05
5.5151e-05
5.67943e-05
5.83036e-05
6.02774e-05
6.04439e-05
6.07992e-05
6.10531e-05
9.3441e-06
1.519e-05
1.89589e-05
2.09765e-05
2.19291e-05
2.2157e-05
2.22342e-05
2.2026e-05
2.1719e-05
2.13751e-05
2.1031e-05
2.07038e-05
2.04041e-05
2.01347e-05
1.98927e-05
1.96846e-05
1.9501e-05
1.9342e-05
1.24523e-12
1.41458e-10
7.26878e-10
2.87635e-09
9.64864e-09
2.91304e-08
7.89555e-08
1.6212e-07
2.69878e-07
3.86785e-07
4.94374e-07
5.79673e-07
6.38125e-07
6.636e-07
6.56812e-07
6.30461e-07
5.81758e-07
5.0112e-07
4.22755e-07
3.57732e-07
2.96985e-07
2.38836e-07
1.82912e-07
1.31562e-07
8.59932e-08
5.07908e-08
2.74106e-08
1.40962e-08
7.29741e-09
3.99901e-09
2.41228e-09
1.73616e-09
1.92796e-09
3.42707e-09
5.84712e-09
4.10921e-08
9.63074e-08
2.30885e-07
3.72125e-07
4.42571e-07
4.17083e-07
3.42011e-07
2.6916e-07
2.30011e-07
2.37547e-07
2.95841e-07
3.77574e-07
6.69488e-07
1.26912e-06
3.23143e-06
1.03074e-05
2.38837e-05
3.93616e-05
4.79793e-05
5.27584e-05
4.81198e-05
4.77924e-05
4.76833e-05
4.28128e-05
3.70214e-05
3.38281e-05
3.44702e-05
3.57825e-05
3.03529e-05
3.26027e-05
3.29028e-05
3.3545e-05
3.41311e-05
3.47177e-05
3.52893e-05
3.58491e-05
3.64105e-05
3.6955e-05
3.75023e-05
3.80393e-05
3.85747e-05
3.91064e-05
3.96334e-05
4.01594e-05
4.06797e-05
4.12e-05
4.17153e-05
4.22302e-05
4.27411e-05
4.32509e-05
4.37582e-05
4.42638e-05
4.4768e-05
4.52703e-05
4.57714e-05
4.62714e-05
4.67697e-05
4.72668e-05
4.77613e-05
4.8253e-05
4.87411e-05
4.92252e-05
4.97052e-05
5.0181e-05
5.06549e-05
5.1129e-05
5.16105e-05
5.21063e-05
5.25996e-05
5.30991e-05
5.36047e-05
5.41171e-05
5.46367e-05
5.51644e-05
5.56994e-05
5.62439e-05
5.67961e-05
5.7359e-05
5.79301e-05
5.85131e-05
5.91051e-05
5.97102e-05
6.03258e-05
6.09556e-05
6.15978e-05
6.22557e-05
6.29286e-05
6.36189e-05
6.43267e-05
6.5053e-05
6.57995e-05
6.65658e-05
6.73544e-05
6.81615e-05
6.89881e-05
6.98412e-05
7.07719e-05
7.17487e-05
7.27605e-05
7.3799e-05
7.49422e-05
7.60861e-05
7.73241e-05
7.7969e-05
7.77536e-05
7.75162e-05
7.7267e-05
7.70075e-05
7.67359e-05
7.64524e-05
7.61579e-05
7.58516e-05
7.55348e-05
7.52144e-05
7.48691e-05
7.45338e-05
7.41666e-05
7.38157e-05
7.34288e-05
7.3064e-05
7.26594e-05
7.22833e-05
7.18639e-05
7.14728e-05
7.10559e-05
7.06444e-05
7.02297e-05
6.98127e-05
6.93963e-05
6.89796e-05
6.85638e-05
6.81491e-05
6.7736e-05
6.73249e-05
6.69162e-05
6.65104e-05
6.61074e-05
6.57067e-05
6.53069e-05
6.49038e-05
6.44895e-05
6.4053e-05
6.35655e-05
6.29714e-05
6.14289e-05
6.47758e-12
1.06525e-09
1.43011e-08
7.36729e-08
3.14764e-07
1.04276e-06
2.48324e-06
4.62652e-06
7.2925e-06
1.03652e-05
1.35155e-05
1.6488e-05
1.90185e-05
2.09309e-05
2.2059e-05
2.2376e-05
2.20449e-05
2.13791e-05
1.917e-05
1.62255e-05
1.25298e-05
9.21957e-06
6.49167e-06
4.37904e-06
2.76233e-06
1.70511e-06
1.04677e-06
6.53721e-07
4.07766e-07
2.69727e-07
1.9489e-07
1.62306e-07
1.72444e-07
2.6086e-07
2.57266e-07
2.60782e-06
5.94707e-06
1.30853e-05
1.93069e-05
2.24594e-05
2.1608e-05
1.98942e-05
1.57995e-05
1.378e-05
1.41141e-05
1.53453e-05
1.63839e-05
2.06803e-05
2.9407e-05
3.99348e-05
5.06692e-05
6.16632e-05
7.17452e-05
8.0894e-05
8.94609e-05
9.94055e-05
0.000112687
0.00012675
0.000137579
0.000149539
0.000160247
0.000174369
0.000189612
0.000197911
0.000211035
0.00022242
0.000233781
0.000244476
0.000254945
0.000264936
0.000274692
0.000284082
0.000293278
0.000302198
0.000310959
0.000319513
0.000327935
0.000336198
0.000344346
0.000352363
0.000360279
0.000368081
0.00037579
0.000383397
0.000390918
0.000398348
0.000405698
0.000412967
0.00042016
0.000427274
0.000434319
0.000441286
0.000448177
0.000454984
0.000461699
0.000468308
0.000474788
0.000481108
0.00048722
0.000493058
0.000498524
0.00050351
0.00050788
0.000512348
0.000516596
0.000520777
0.000524817
0.000528746
0.000532547
0.000536224
0.000539772
0.00054319
0.000546475
0.000549626
0.000552642
0.000555521
0.000558262
0.000560865
0.000563331
0.000565658
0.000567847
0.000569895
0.000571802
0.000573566
0.000575189
0.000576667
0.000578005
0.000579201
0.000580257
0.000581163
0.000581897
0.000582431
0.000582813
0.000583033
0.000582926
0.000583148
0.000582851
0.00058288
0.000582796
0.000583012
0.000582886
0.00058263
0.000582253
0.000581743
0.000581097
0.000580312
0.000579376
0.000578409
0.000577094
0.000576035
0.000574387
0.000573107
0.00057119
0.000569692
0.00056752
0.000565801
0.000563395
0.000561471
0.000558986
0.00055661
0.000554136
0.000551568
0.000548957
0.000546282
0.000543561
0.000540793
0.000537982
0.000535129
0.000532236
0.000529304
0.000526337
0.00052333
0.000520276
0.000517168
0.000513943
0.000510519
0.00050677
0.000502393
0.000496627
0.000480714
1.54927e-11
2.6314e-09
5.00279e-08
2.98066e-07
1.14049e-06
2.63478e-06
5.74586e-06
1.0116e-05
1.55889e-05
2.18716e-05
2.86514e-05
3.5336e-05
4.14241e-05
4.65837e-05
5.05414e-05
5.31153e-05
5.46856e-05
5.51529e-05
5.39454e-05
5.12768e-05
4.68519e-05
4.10624e-05
3.39454e-05
2.67408e-05
2.01603e-05
1.44432e-05
9.86289e-06
6.59063e-06
4.21125e-06
2.79561e-06
1.96151e-06
1.53168e-06
1.30519e-06
1.8538e-06
3.00234e-06
1.39766e-05
3.03553e-05
4.95942e-05
6.15337e-05
6.37256e-05
5.63005e-05
4.22521e-05
3.63574e-05
3.87609e-05
4.58236e-05
5.34205e-05
6.39897e-05
7.64642e-05
8.8842e-05
0.000102707
0.000120221
0.000139663
0.000162038
0.000186497
0.000213676
0.000242579
0.00027374
0.000303691
0.000333536
0.000363081
0.000391861
0.000419393
0.000446795
0.000471179
0.000495386
0.000518545
0.000540528
0.000561753
0.000582223
0.000602029
0.000621297
0.000640044
0.000658387
0.00067633
0.000693954
0.000711265
0.000728314
0.000745106
0.00076167
0.000778011
0.000794148
0.000810082
0.000825827
0.000841382
0.000856757
0.000871952
0.000886971
0.000901814
0.000916481
0.000930969
0.000945276
0.000959393
0.000973308
0.000987003
0.00100046
0.00101364
0.00102653
0.00103907
0.00105122
0.00106295
0.00107421
0.00108501
0.00109548
0.0011058
0.00111582
0.00112561
0.00113513
0.00114439
0.00115336
0.00116206
0.00117048
0.0011786
0.00118643
0.00119397
0.00120121
0.00120814
0.00121478
0.00122111
0.00122714
0.00123288
0.0012383
0.00124343
0.00124825
0.00125277
0.00125698
0.00126089
0.0012645
0.0012678
0.00127079
0.00127347
0.00127582
0.00127783
0.00127955
0.00128096
0.00128203
0.00128296
0.00128338
0.00128379
0.00128397
0.00128407
0.00128378
0.00128322
0.00128236
0.0012812
0.00127974
0.00127797
0.0012759
0.00127357
0.00127084
0.00126806
0.00126468
0.00126137
0.00125741
0.0012536
0.00124908
0.00124478
0.00123975
0.00123501
0.00122962
0.00122424
0.00121867
0.00121293
0.00120707
0.00120109
0.00119501
0.00118883
0.00118257
0.00117623
0.00116981
0.00116331
0.00115675
0.00115012
0.00114339
0.00113654
0.00112946
0.00112197
0.0011138
0.00110419
0.00109122
0.00106238
5.98965e-11
1.01464e-08
1.66622e-07
6.98632e-07
2.30761e-06
6.20494e-06
1.25502e-05
2.10785e-05
3.12698e-05
4.21117e-05
5.26929e-05
6.25207e-05
7.11171e-05
7.79561e-05
8.30424e-05
8.65588e-05
8.81786e-05
8.82961e-05
8.70264e-05
8.43137e-05
8.00282e-05
7.47675e-05
6.76652e-05
5.90602e-05
4.94565e-05
3.97135e-05
3.066e-05
2.30883e-05
1.72441e-05
1.25815e-05
9.65913e-06
7.16651e-06
7.09572e-06
9.97382e-06
2.15416e-05
4.40492e-05
6.41984e-05
7.73909e-05
7.75417e-05
7.19524e-05
6.88815e-05
6.98541e-05
7.48572e-05
8.37398e-05
9.60661e-05
0.000109327
0.000122627
0.00014526
0.000166746
0.000196047
0.000228576
0.000265335
0.000305226
0.000347387
0.000391163
0.000435399
0.000479805
0.000523577
0.000565251
0.00060619
0.000645847
0.000683628
0.000719768
0.000754458
0.00078778
0.000819898
0.000850895
0.000880961
0.00091017
0.000938641
0.000966464
0.000993705
0.00102044
0.00104671
0.00107257
0.00109804
0.00112316
0.00114795
0.00117241
0.00119657
0.00122043
0.00124401
0.0012673
0.00129031
0.00131304
0.00133549
0.00135766
0.00137956
0.00140116
0.00142248
0.00144349
0.00146419
0.00148457
0.00150459
0.00152424
0.00154349
0.00156232
0.00158071
0.00159863
0.00161607
0.00163304
0.00164959
0.00166576
0.00168159
0.00169703
0.00171208
0.00172673
0.00174097
0.00175479
0.00176818
0.00178114
0.00179365
0.00180572
0.00181734
0.0018285
0.00183921
0.00184946
0.00185925
0.00186859
0.00187748
0.00188591
0.00189388
0.0019014
0.00190846
0.00191507
0.00192122
0.00192692
0.00193217
0.00193696
0.0019413
0.00194517
0.00194858
0.00195157
0.0019541
0.00195617
0.00195782
0.00195889
0.00195971
0.00196013
0.00196022
0.00195983
0.00195901
0.00195775
0.00195605
0.00195389
0.00195129
0.00194826
0.00194479
0.00194086
0.0019366
0.00193178
0.00192672
0.00192108
0.00191525
0.00190883
0.00190226
0.0018951
0.00188787
0.0018801
0.00187215
0.00186394
0.0018555
0.00184687
0.00183806
0.0018291
0.00182001
0.00181079
0.00180144
0.00179199
0.00178243
0.00177278
0.00176303
0.00175316
0.00174312
0.00173279
0.00172195
0.00171022
0.00169655
0.00167834
0.00164417
1.98813e-10
3.0471e-08
3.68958e-07
1.73523e-06
5.95264e-06
1.45743e-05
2.73274e-05
4.28609e-05
5.93224e-05
7.51265e-05
8.9173e-05
0.000100755
0.000109292
0.000115563
0.00011919
0.000120867
0.000120837
0.000119372
0.000116682
0.000112875
0.000107719
0.000101919
9.48972e-05
8.65345e-05
7.67466e-05
6.58716e-05
5.45686e-05
4.41294e-05
3.54005e-05
2.84763e-05
2.24372e-05
2.07986e-05
2.31717e-05
3.70212e-05
6.24443e-05
8.06853e-05
8.95054e-05
9.26574e-05
9.38073e-05
9.6306e-05
0.000102184
0.000112295
0.000127457
0.000137658
0.000152484
0.00017752
0.000206174
0.000241164
0.000279677
0.000325151
0.000372852
0.000424064
0.000476816
0.000530571
0.000584541
0.000638013
0.000690595
0.00074217
0.000791781
0.000839712
0.000886626
0.000931866
0.000975309
0.00101736
0.00105806
0.00109756
0.00113598
0.00117343
0.00121002
0.00124585
0.00128098
0.00131549
0.00134943
0.00138285
0.00141579
0.00144828
0.00148034
0.00151197
0.00154321
0.00157405
0.00160451
0.00163458
0.00166427
0.00169358
0.00172251
0.00175106
0.00177922
0.001807
0.00183438
0.00186135
0.00188792
0.00191406
0.00193975
0.00196499
0.00198976
0.00201403
0.0020378
0.00206105
0.00208378
0.002106
0.00212773
0.00214896
0.00216973
0.00219002
0.00220981
0.00222909
0.00224785
0.00226608
0.00228377
0.0023009
0.00231746
0.00233345
0.00234887
0.00236372
0.00237798
0.00239166
0.00240475
0.00241726
0.00242919
0.00244053
0.0024513
0.00246149
0.0024711
0.00248013
0.00248859
0.00249648
0.0025038
0.00251055
0.00251673
0.00252234
0.00252739
0.00253189
0.00253588
0.00253929
0.00254213
0.00254432
0.00254592
0.00254707
0.00254776
0.00254791
0.00254752
0.00254658
0.00254509
0.00254305
0.00254045
0.00253731
0.00253364
0.00252942
0.00252467
0.00251943
0.00251363
0.00250739
0.0025006
0.00249341
0.00248567
0.00247756
0.00246892
0.00245997
0.00245055
0.00244081
0.00243076
0.00242041
0.00240982
0.00239901
0.00238799
0.0023768
0.00236544
0.00235392
0.00234226
0.00233047
0.00231855
0.0023065
0.00229431
0.00228192
0.00226923
0.00225602
0.0022419
0.0022258
0.00220478
0.00217036
6.23533e-10
7.52397e-08
9.04513e-07
4.54393e-06
1.51731e-05
3.25978e-05
5.41685e-05
7.67079e-05
9.70728e-05
0.000113554
0.000126029
0.000135473
0.000141699
0.000145263
0.000146763
0.000146596
0.000145042
0.000142301
0.000138538
0.000133775
0.000127941
0.000121582
0.00011423
0.000105694
9.60344e-05
8.24749e-05
6.74105e-05
5.31072e-05
4.04691e-05
3.25318e-05
3.1518e-05
3.9035e-05
5.7742e-05
8.09031e-05
9.82364e-05
0.000108699
0.000114353
0.000118764
0.000125677
0.000137541
0.000152409
0.000162204
0.00017887
0.000204233
0.000234311
0.000272405
0.000315409
0.000364396
0.000416952
0.000473527
0.000531518
0.000591265
0.000651427
0.000711629
0.000771355
0.000830222
0.000887769
0.000943977
0.000998754
0.00105242
0.00110439
0.00115488
0.00120387
0.00125155
0.001298
0.00134332
0.00138761
0.00143098
0.00147349
0.00151524
0.00155628
0.00159667
0.00163646
0.00167568
0.00171437
0.00175253
0.0017902
0.00182737
0.00186406
0.00190027
0.001936
0.00197125
0.00200603
0.00204033
0.00207414
0.00210747
0.00214032
0.00217268
0.00220454
0.00223589
0.00226674
0.00229707
0.00232686
0.0023561
0.00238479
0.00241291
0.00244046
0.00246743
0.00249383
0.00251966
0.00254492
0.00256962
0.00259375
0.00261731
0.00264027
0.00266263
0.00268437
0.00270548
0.00272595
0.00274577
0.00276493
0.00278342
0.00280124
0.00281838
0.00283485
0.00285064
0.00286574
0.00288017
0.00289391
0.00290698
0.00291938
0.0029311
0.00294216
0.00295256
0.0029623
0.00297138
0.00297981
0.00298758
0.00299471
0.0030012
0.00300705
0.00301237
0.00301704
0.00302104
0.0030244
0.00302699
0.003029
0.00303044
0.00303131
0.00303159
0.00303125
0.0030303
0.00302874
0.00302657
0.00302377
0.00302038
0.00301639
0.00301181
0.00300664
0.0030009
0.00299459
0.00298774
0.00298034
0.00297242
0.00296396
0.00295501
0.00294555
0.00293565
0.00292529
0.00291454
0.00290342
0.00289197
0.00288022
0.00286821
0.00285595
0.00284347
0.00283079
0.00281792
0.00280487
0.00279167
0.00277832
0.00276483
0.00275119
0.00273736
0.00272325
0.00270869
0.0026933
0.00267617
0.00265466
0.00262207
1.96383e-09
1.87996e-07
2.37156e-06
1.24991e-05
3.35896e-05
6.12108e-05
8.84714e-05
0.000111283
0.000129156
0.000142516
0.000152562
0.000158975
0.00016272
0.000164296
0.000164199
0.000162761
0.000160193
0.000156647
0.000152147
0.000146682
0.000140303
0.000133126
0.00012469
0.000111791
9.53582e-05
8.09146e-05
6.81102e-05
5.75353e-05
5.19937e-05
5.56368e-05
6.75498e-05
8.81247e-05
0.000110679
0.00012454
0.000134355
0.000141568
0.000149312
0.000161435
0.000175913
0.000184576
0.00020093
0.000225372
0.000254925
0.000292598
0.000336128
0.00038651
0.000441168
0.000499787
0.00056072
0.000623636
0.00068732
0.000751585
0.000815705
0.00087938
0.000942237
0.0010039
0.00106457
0.00112438
0.00118263
0.0012396
0.00129517
0.00134944
0.00140242
0.00145421
0.0015049
0.00155455
0.00160324
0.00165105
0.00169805
0.0017443
0.00178985
0.00183473
0.001879
0.00192266
0.00196574
0.00200825
0.0020502
0.00209159
0.00213242
0.00217269
0.0022124
0.00225154
0.00229012
0.00232812
0.00236556
0.00240242
0.00243871
0.00247441
0.00250953
0.00254407
0.00257801
0.00261136
0.0026441
0.00267623
0.00270773
0.00273861
0.00276885
0.00279846
0.00282743
0.00285575
0.00288342
0.00291045
0.00293684
0.00296258
0.00298766
0.00301207
0.00303579
0.00305881
0.00308112
0.00310271
0.00312357
0.0031437
0.00316309
0.00318174
0.00319965
0.00321682
0.00323326
0.00324895
0.0032639
0.0032781
0.00329157
0.0033043
0.0033163
0.00332758
0.00333813
0.00334797
0.00335711
0.00336553
0.00337326
0.00338029
0.00338667
0.00339248
0.00339758
0.00340197
0.00340565
0.00340851
0.00341081
0.00341245
0.00341348
0.00341387
0.00341361
0.0034127
0.00341116
0.00340899
0.00340622
0.00340283
0.00339882
0.0033942
0.00338897
0.00338315
0.00337673
0.00336974
0.00336218
0.00335407
0.0033454
0.00333621
0.00332648
0.00331627
0.00330558
0.00329445
0.00328293
0.00327103
0.00325881
0.00324627
0.00323346
0.00322039
0.00320708
0.00319355
0.00317981
0.00316588
0.0031518
0.00313756
0.00312317
0.00310861
0.00309381
0.00307865
0.00306283
0.00304559
0.00302489
0.00299536
5.8836e-09
4.93411e-07
6.26422e-06
2.74234e-05
5.94544e-05
9.2796e-05
0.00012123
0.000143073
0.000158633
0.000168935
0.00017444
0.000176864
0.000177253
0.00017634
0.000174403
0.000171584
0.000167903
0.000163239
0.000157586
0.00015099
0.000143702
0.000135457
0.000121743
0.000104634
8.93379e-05
7.68847e-05
6.98926e-05
7.13758e-05
7.72528e-05
9.29843e-05
0.0001172
0.00014134
0.000159553
0.000168498
0.000177422
0.000189263
0.000197059
0.000204996
0.000219697
0.000241612
0.000269619
0.000305134
0.000346813
0.000395475
0.00044946
0.000508223
0.000569873
0.000633778
0.000699002
0.000765116
0.000831511
0.000897891
0.000963887
0.00102888
0.00109316
0.00115694
0.00121945
0.00128089
0.00134109
0.0014001
0.00145791
0.00151457
0.00157011
0.00162459
0.00167807
0.00173062
0.00178228
0.00183313
0.0018832
0.00193256
0.00198124
0.00202927
0.00207667
0.00212346
0.00216965
0.00221524
0.00226021
0.00230458
0.00234833
0.00239146
0.00243395
0.00247581
0.00251702
0.00255759
0.00259752
0.0026368
0.00267543
0.0027134
0.00275072
0.00278739
0.00282342
0.00285879
0.0028935
0.00292754
0.00296092
0.00299363
0.00302567
0.00305703
0.00308769
0.00311766
0.00314694
0.00317555
0.00320348
0.00323072
0.00325726
0.0032831
0.0033082
0.00333258
0.0033562
0.00337907
0.00340116
0.00342248
0.00344302
0.00346277
0.00348173
0.0034999
0.00351727
0.00353383
0.00354961
0.0035646
0.0035788
0.00359222
0.00360486
0.00361674
0.00362786
0.00363823
0.00364785
0.00365674
0.00366489
0.00367232
0.00367912
0.00368528
0.00369073
0.00369545
0.00369941
0.0037026
0.00370518
0.00370711
0.00370839
0.00370902
0.00370899
0.00370831
0.00370699
0.00370501
0.00370241
0.00369917
0.00369532
0.00369084
0.00368574
0.00368005
0.00367375
0.00366687
0.00365941
0.00365137
0.00364277
0.00363362
0.00362392
0.00361371
0.00360301
0.00359185
0.00358026
0.00356827
0.00355592
0.00354323
0.00353022
0.00351693
0.00350336
0.00348954
0.00347548
0.00346121
0.00344676
0.00343214
0.00341738
0.00340246
0.00338735
0.00337195
0.00335607
0.0033392
0.00331974
0.00329377
1.54767e-08
1.22305e-06
1.44043e-05
4.72202e-05
8.68329e-05
0.000121313
0.000147683
0.00016632
0.000178303
0.000184943
0.000187724
0.000187683
0.000185732
0.000182531
0.000178513
0.000173872
0.000168572
0.000162655
0.000156143
0.000148869
0.000140916
0.000131412
0.000117016
0.000106727
0.000101739
9.69397e-05
9.5202e-05
0.000103911
0.000121866
0.000143057
0.000164292
0.000182716
0.000196828
0.000205849
0.000213495
0.000222316
0.000235554
0.000254565
0.000279956
0.000312335
0.000351099
0.000396394
0.000447371
0.000503715
0.000564035
0.000627326
0.000692392
0.00075868
0.000825647
0.000892936
0.000960189
0.00102691
0.00109292
0.00115874
0.00122366
0.00128768
0.00135065
0.00141259
0.00147345
0.00153324
0.00159196
0.00164967
0.00170638
0.00176215
0.00181704
0.00187108
0.00192432
0.00197681
0.00202859
0.00207971
0.0021302
0.00218008
0.00222938
0.00227808
0.00232621
0.00237371
0.00242059
0.00246684
0.00251244
0.00255738
0.00260164
0.0026452
0.00268808
0.00273025
0.00277172
0.00281251
0.00285261
0.00289206
0.0029308
0.00296882
0.00300615
0.00304277
0.00307868
0.00311388
0.00314838
0.00318217
0.00321526
0.00324764
0.00327932
0.00331031
0.00334061
0.00337021
0.00339912
0.00342731
0.00345478
0.00348152
0.00350751
0.00353275
0.00355723
0.00358092
0.00360382
0.00362592
0.00364721
0.00366769
0.00368735
0.00370618
0.00372418
0.00374136
0.00375771
0.00377323
0.00378794
0.00380184
0.00381493
0.00382724
0.00383875
0.00384949
0.00385946
0.00386868
0.00387715
0.00388489
0.00389201
0.00389844
0.00390418
0.00390919
0.00391343
0.00391696
0.00391984
0.00392208
0.00392367
0.00392461
0.00392492
0.00392459
0.00392363
0.00392204
0.00391982
0.00391699
0.00391355
0.00390951
0.00390487
0.00389963
0.0038938
0.0038874
0.00388042
0.00387286
0.00386474
0.00385607
0.00384684
0.00383709
0.00382684
0.00381611
0.00380494
0.00379335
0.00378137
0.00376902
0.00375634
0.00374333
0.00373001
0.00371641
0.00370254
0.00368844
0.00367413
0.00365964
0.003645
0.00363021
0.00361527
0.00360011
0.00358461
0.00356832
0.00354995
0.003527
3.49972e-08
2.83984e-06
2.6573e-05
7.02712e-05
0.00011388
0.000148366
0.000172121
0.000186806
0.000194763
0.00019727
0.000195992
0.00019234
0.000187309
0.00018152
0.000175318
0.000168672
0.000161647
0.000154103
0.000146037
0.000137671
0.000128441
0.00011914
0.000111002
0.000106202
0.000107209
0.000115506
0.000129757
0.00014719
0.000165878
0.000184103
0.000200232
0.000212769
0.000223366
0.000234697
0.000247766
0.000264987
0.000287507
0.000316358
0.000351531
0.000392853
0.00043979
0.000492008
0.000548782
0.000609382
0.000672681
0.000737778
0.000803924
0.000870685
0.0009377
0.00100471
0.00107106
0.00113714
0.00120286
0.00126781
0.00133188
0.00139503
0.00145721
0.00151842
0.00157864
0.00163788
0.00169617
0.00175353
0.00181001
0.00186567
0.00192055
0.0019747
0.00202817
0.00208096
0.00213311
0.00218471
0.00223578
0.00228632
0.00233636
0.0023859
0.00243498
0.00248365
0.0025318
0.0025793
0.00262611
0.0026722
0.00271757
0.00276218
0.00280604
0.00284914
0.00289147
0.00293305
0.00297386
0.00301388
0.00305317
0.00309174
0.0031296
0.00316677
0.00320322
0.00323898
0.00327404
0.00330841
0.00334208
0.00337505
0.00340735
0.00343896
0.00346988
0.0035001
0.00352961
0.00355841
0.0035865
0.00361385
0.00364045
0.00366631
0.00369139
0.00371569
0.0037392
0.0037619
0.00378378
0.00380484
0.00382507
0.00384445
0.00386299
0.00388068
0.00389752
0.00391352
0.00392868
0.00394301
0.00395651
0.0039692
0.00398109
0.00399218
0.00400249
0.00401204
0.00402082
0.00402891
0.00403634
0.00404308
0.00404911
0.00405444
0.00405903
0.00406294
0.0040662
0.00406882
0.00407081
0.00407217
0.00407292
0.00407306
0.00407259
0.00407152
0.00406985
0.00406759
0.00406475
0.00406133
0.00405733
0.00405276
0.00404763
0.00404193
0.00403566
0.00402884
0.00402145
0.00401351
0.00400502
0.003996
0.00398648
0.00397647
0.00396601
0.00395511
0.0039438
0.00393211
0.00392004
0.00390763
0.00389487
0.0038818
0.00386844
0.00385482
0.00384097
0.00382692
0.0038127
0.00379833
0.00378383
0.00376917
0.00375428
0.00373883
0.00372176
0.00370221
6.80683e-08
5.92275e-06
4.07415e-05
9.1045e-05
0.000136104
0.000169602
0.000191213
0.000202384
0.000205883
0.000204219
0.00019927
0.000192391
0.000184509
0.000176071
0.000167373
0.000158773
0.000150098
0.000142252
0.000135078
0.000129048
0.000124347
0.000122489
0.000124415
0.000130616
0.000140896
0.000154414
0.000169995
0.000186292
0.0002021
0.000216069
0.000228253
0.000241488
0.000256043
0.000272813
0.000293274
0.000318988
0.000350367
0.0003875
0.000430042
0.000477589
0.000529664
0.000585799
0.000645334
0.000707503
0.000771441
0.000836454
0.000902024
0.000967815
0.00103333
0.00109835
0.00116342
0.00122775
0.00129138
0.00135417
0.00141604
0.00147697
0.00153694
0.00159599
0.00165413
0.00171139
0.00176779
0.00182328
0.00187804
0.00193213
0.0019856
0.0020385
0.00209095
0.00214311
0.00219505
0.00224656
0.00229763
0.00234824
0.00239841
0.00244815
0.00249742
0.00254616
0.00259434
0.00264194
0.00268885
0.00273511
0.00278067
0.00282551
0.0028696
0.00291294
0.00295552
0.00299736
0.00303845
0.00307883
0.0031185
0.00315746
0.00319571
0.00323326
0.00327012
0.00330628
0.00334175
0.00337652
0.00341062
0.00344402
0.00347675
0.0035088
0.00354016
0.00357084
0.00360083
0.00363012
0.0036587
0.00368657
0.00371371
0.00374011
0.00376576
0.00379064
0.00381473
0.00383803
0.00386051
0.00388217
0.003903
0.00392298
0.00394211
0.00396038
0.00397779
0.00399434
0.00401004
0.00402489
0.00403889
0.00405207
0.00406442
0.00407597
0.00408672
0.00409669
0.0041059
0.00411441
0.00412225
0.00412938
0.00413582
0.00414157
0.00414662
0.00415102
0.00415476
0.00415787
0.00416037
0.00416228
0.00416359
0.00416432
0.00416447
0.00416405
0.00416307
0.00416153
0.00415944
0.00415679
0.0041536
0.00414986
0.00414558
0.00414076
0.0041354
0.00412948
0.00412302
0.004116
0.00410844
0.00410036
0.00409177
0.00408269
0.00407314
0.00406315
0.00405274
0.00404191
0.0040307
0.0040191
0.00400714
0.00399484
0.00398221
0.0039693
0.00395613
0.00394274
0.00392916
0.00391543
0.00390156
0.00388757
0.00387343
0.00385889
0.00384304
0.00382641
1.11865e-07
1.04926e-05
5.60832e-05
0.000112678
0.000159021
0.000190244
0.000207653
0.00021452
0.000214108
0.000209003
0.000201127
0.000191775
0.000181719
0.000172162
0.000162955
0.000155097
0.000148303
0.000143603
0.000140843
0.000140289
0.000142419
0.0001473
0.000155018
0.000165301
0.000177589
0.00019122
0.000205387
0.000218984
0.000231728
0.000245423
0.000261122
0.000278351
0.000297909
0.000321359
0.000349432
0.000382577
0.000420697
0.000463507
0.000510609
0.000561606