/*--------------------------------*- C++ -*----------------------------------*\
  =========                 |
  \\      /  F ield         | OpenFOAM: The Open Source CFD Toolbox
   \\    /   O peration     | Website:  https://openfoam.org
    \\  /    A nd           | Version:  13
     \\/     M anipulation  |
\*---------------------------------------------------------------------------*/
FoamFile
{
    format      ascii;
    class       volScalarField;
    location    "1600";
    object      omega;
}
// * * * * * * * * * * * * * * * * * * * * * * * * * * * * * * * * * * * * * //

dimensions      [0 0 -1 0 0 0 0];

internalField   nonuniform List<scalar> 
12225
(
31477.7
42391.6
39739.7
38351.3
37184.6
37878
31477.7
42901.3
43470.8
47240.9
49750
46581.2
44103.7
41160.7
44501
47545.2
43486.3
45715.7
4885.96
25982.1
19340.1
15641.6
14931.1
16237.9
15662.9
16941.3
18467.2
18815.3
18469.7
20460.1
19465.7
19058.6
19652.5
20308.3
19035.6
19823.8
8700.58
6459.32
7039.41
6800.87
6293.24
7114.27
7157.62
7225.98
7331.57
7417.5
7869.55
8668.3
8639.19
8861.8
9009.41
9123.02
9104.14
9183.79
1756.09
6601.03
6486.9
7327.12
8757.98
9164.67
8967.39
8530.91
8149.12
7669.26
7298.69
6867.17
6140.54
5749.23
5329.29
4991.62
4642.98
4454.97
0.385323
7009.13
7459.24
7099.69
9665.86
10342
9821.42
9061.99
8334.38
7491.5
6444.11
5445.57
4600.35
3900.37
3491.27
3221.8
2948.17
2740.52
0.387485
4300.92
8567.31
8122.36
8732.87
8579.28
7782.45
7241.25
6394.63
5579.81
5088.6
4556.9
3883.73
3263.61
2739.02
2343.16
2081.67
1906.51
0.38587
2258.52
4717.75
4821.69
4914.77
4881.45
4804.63
4401.37
3514.07
3141.97
3012.3
2654.38
2197.45
1895.71
1732.56
1575.08
1472.92
1388.64
291.206
622.017
1300.75
1644.85
1848.23
1868.28
1887.05
1885.39
1700.07
1508.17
1493.38
1381.34
1223.54
1109.65
1037.16
1002.52
960.492
930.875
430.993
509.774
608.584
749.861
792.977
832.793
861.739
890.565
901.062
900.062
893.593
886.685
846.873
821.193
803.711
738.46
722.003
709.927
434.021
444.639
476.304
497.596
537.174
549.29
552.564
581.545
589.73
598.298
602.646
606.906
600.002
599.059
595.727
565.462
562.093
559.952
437.359
437.292
438.251
442.82
455.526
459.747
460.977
472.317
475.984
480.213
483.002
485.795
486.404
487.275
481.246
470.52
471.899
472.574
439.142
436.269
434.77
434.158
434.535
435.488
436.541
437.995
439.143
440.456
441.255
439.834
438.613
440.383
440.61
437.193
437.257
436.103
439.093
436.659
434.619
432.792
431.21
429.839
428.652
427.695
426.724
425.948
425.243
424.441
423.391
422.677
421.935
421.214
420.331
420.013
439.024
436.761
434.648
432.666
430.784
429.024
427.372
425.846
424.378
423.03
421.729
420.541
419.335
418.275
417.19
416.273
415.277
414.494
439.004
436.774
434.657
432.655
430.747
428.942
427.221
425.598
424.044
422.578
421.172
419.848
418.573
417.377
416.221
415.142
414.091
413.116
439.001
436.773
434.657
432.649
430.74
428.927
427.202
425.562
423.999
422.513
421.095
419.746
418.457
417.233
416.06
414.947
413.879
412.865
439.001
436.772
434.655
432.645
430.735
428.919
427.192
425.548
423.983
422.493
421.073
419.719
418.428
417.197
416.022
414.901
413.831
412.809
438.999
436.769
434.65
432.638
430.725
428.908
427.178
425.533
423.966
422.473
421.051
419.695
418.403
417.169
415.993
414.87
413.798
412.773
439
436.771
434.653
432.641
430.73
428.912
427.183
425.537
423.97
422.477
421.055
419.698
418.406
417.171
415.995
414.87
413.798
412.773
439.001
436.772
434.655
432.644
430.734
428.917
427.189
425.544
423.978
422.486
421.064
419.708
418.416
417.182
416.006
414.882
413.81
412.785
439.002
436.771
434.66
432.646
430.741
428.921
427.199
425.551
423.991
422.497
421.081
419.725
418.436
417.205
416.031
414.91
413.842
412.82
439.002
436.773
434.668
432.646
430.755
428.925
427.223
425.566
424.033
422.534
421.153
419.802
418.544
417.331
416.185
415.083
414.06
413.048
438.989
436.789
434.674
432.636
430.789
428.982
427.367
425.759
424.362
422.953
421.784
420.552
419.527
418.465
417.549
416.611
415.885
414.998
438.926
436.863
434.636
432.684
431.19
429.91
428.927
427.99
427.375
426.899
426.746
426.59
426.652
426.738
426.718
426.791
427.083
427.111
438.808
436.667
435.303
434.898
435.963
438.248
441.013
443.419
447
450.198
454.509
457.643
461.505
464.198
467.794
470.3
474.14
476.583
437.796
440.375
446.423
452.678
469.815
484.496
502.533
517.438
536.027
550.218
567.374
579.537
594.188
604.597
617.539
626.875
639.353
647.654
441.798
473.742
525.541
576.902
643.083
704.354
772.307
829.582
893.747
942.165
997.922
1035.64
1082.5
1112.27
1152.24
1177.68
1213.46
1235.78
486.639
725.524
1060.66
1348.51
1622.96
1872.26
2112.25
2311.65
2508.64
2658.22
2811.85
2917.78
3038.04
3115.52
3212.61
3274.43
3358.2
3411.49
1039.61
3933.43
5972.43
7345.77
8310.11
8966.1
9424.83
9739.18
9922.81
10034.2
10051.3
10039.6
10008.9
9956.02
9909.01
9864.49
9838.8
9826.9
18117.5
23108.6
25490.9
26481.2
26851.8
26820.6
26664.2
26393.9
26063.8
25727.1
25402.6
25098.6
24820.3
24568.6
24341.1
24140.6
23960.1
23800.4
11463.2
2514.24
2516.41
2518.61
2520.83
2523.07
2525.32
2527.6
2529.9
2532.22
2534.57
2536.93
2539.31
2541.72
2544.15
2546.6
2549.08
2551.57
2554.09
2556.64
2559.2
2561.79
2564.41
2567.05
2569.71
2572.4
2575.12
2577.86
2580.62
2583.41
2586.23
2589.08
2591.95
2594.85
2597.77
2600.73
2603.71
2606.72
2609.76
2612.82
2615.92
2619.05
2622.2
2625.39
2628.61
2631.86
2635.14
2638.45
2641.79
2645.17
2648.58
2652.02
2655.5
2659.01
2662.55
2666.13
2669.74
2673.39
2677.08
2680.8
3235.74
3395.42
2692.19
3282.53
3345.43
3448.16
3526.62
3604.83
3680.95
3754.11
3824.4
3893.66
3960.2
4025.82
4089.54
4152.14
4213.43
4273.56
4332.64
4390.6
4447.62
4503.62
4558.7
4612.84
4666.04
4718.36
4769.71
4820.21
4869.75
4918.41
4966.13
5012.86
5058.58
5103.24
5146.79
5189.19
5230.34
5270.25
5308.83
5346.19
5382.38
5417.77
5452.71
5486.51
5519.48
5551.57
5582.78
5613.08
5642.51
5670.97
5698.58
5725.18
5750.93
5775.64
5799.49
5822.28
5844.19
5865.07
5885.04
5903.99
5922
5938.97
5954.94
5969.9
5983.79
5996.68
6008.42
6019.12
6028.43
6036.36
6042.95
6050.54
6057.44
6063.2
6066.8
6071.08
6073.46
6075.42
6076.1
6075.54
6073.92
6071.31
6067.82
6063.49
6058.24
6052.2
6045.31
6037.78
6029.28
6020.42
6010.33
6000.18
5988.73
5977.42
5964.74
5952.39
5938.67
5925.54
5911.06
5896.98
5882.44
5867.86
5853.27
5838.7
5824.24
5809.9
5795.72
5781.73
5767.98
5754.48
5741.28
5728.36
5715.69
5703.12
5690.29
5676.49
5660.73
5640.41
5610.53
5495.56
11463.2
1991.06
991.687
810.382
695.521
604.76
607.272
606.878
599.429
580.196
558.509
535.843
515.366
498.599
487.093
479.252
479.104
479.928
506.291
550.432
632.729
733.117
842.246
951.383
1047.72
1124.34
1163.59
1154.38
1123.31
1037.37
919.672
779.692
649.573
568.049
501.2
459.049
446.528
450.6
467.608
494.765
526.868
552.506
632.044
739.828
865.043
1089.5
1419.63
1707.54
1889.54
1995.5
2048.99
2058.19
2030.74
1986.71
1947.09
1897.18
1820.19
1748.65
1716.71
1693.12
1689.3
1658.38
1620.95
1645.15
1634.15
1632.28
1631.35
1633.09
1635.75
1640.17
1645.21
1651.49
1658.13
1665.54
1673.19
1681.27
1689.5
1697.95
1706.48
1715.1
1723.72
1732.36
1740.96
1749.52
1757.99
1766.36
1774.6
1782.69
1790.62
1798.38
1805.9
1813.22
1820.3
1827.14
1833.75
1840.15
1846.37
1852.49
1858.65
1865.02
1871.91
1879.66
1888.75
1896.98
1905.32
1913.32
1921.18
1928.81
1936.25
1943.47
1950.48
1957.28
1963.87
1970.24
1976.39
1982.33
1988.05
1993.54
1998.8
2003.83
2008.63
2013.2
2017.53
2021.63
2025.5
2029.13
2032.52
2035.65
2038.54
2041.2
2043.71
2046.2
2048.44
2050.39
2052.15
2053.83
2055.21
2056.13
2056.26
2055.78
2055.27
2054.51
2053.53
2052.34
2050.95
2049.39
2047.7
2045.49
2043.85
2040.71
2039
2035.44
2033.51
2029.59
2027.46
2023.24
2020.92
2016.49
2013.56
2009.89
2006.24
2002.63
1998.93
1995.25
1991.56
1987.89
1984.23
1980.61
1977.04
1973.51
1970.07
1966.71
1963.46
1960.3
1957.34
1954.64
1952.27
1950.73
1949.03
1958.02
11463.2
2005.95
798.114
602.995
626.734
647.437
629.135
581.971
526.797
473.256
424.637
384.541
352.571
327.249
307.603
292.469
281.714
273.763
270.871
272.859
282.367
300.101
331.44
374.584
428.423
488.634
549.16
597.173
628.195
625.332
606.388
567.718
507.923
438.047
386.184
366.562
372.418
389.138
414.602
461.743
546.11
669.365
845.949
1041.55
1203.87
1338.8
1464.43
1530.82
1543.43
1524.46
1473.78
1417.01
1355.19
1300.19
1252.06
1211.83
1174.17
1148.62
1127.48
1111.68
1099.76
1091.95
1084.12
1083.04
1081.29
1080.79
1081.9
1083.65
1086.13
1089.17
1092.61
1096.44
1100.51
1104.82
1109.27
1113.87
1118.56
1123.32
1128.12
1132.95
1137.79
1142.62
1147.44
1152.23
1156.98
1161.68
1166.32
1170.89
1175.4
1179.83
1184.18
1188.46
1192.65
1196.79
1200.87
1204.93
1208.98
1213.07
1217.23
1221.51
1225.95
1230.54
1235.13
1239.51
1243.83
1248.01
1252.09
1256.05
1259.88
1263.6
1267.2
1270.67
1274.01
1277.24
1280.33
1283.29
1286.12
1288.82
1291.38
1293.8
1296.08
1298.22
1300.23
1302.1
1303.82
1305.41
1306.86
1308.16
1309.33
1310.37
1311.3
1312.11
1312.78
1313.3
1313.71
1313.98
1314.08
1313.94
1313.58
1313.04
1312.4
1311.63
1310.73
1309.71
1308.57
1307.32
1305.96
1304.45
1302.95
1301.12
1299.49
1297.43
1295.66
1293.4
1291.5
1289.07
1287.06
1284.49
1282.27
1279.83
1277.37
1274.89
1272.37
1269.83
1267.28
1264.71
1262.14
1259.58
1257.02
1254.48
1251.98
1249.52
1247.13
1244.85
1242.75
1240.94
1239.59
1239.3
1240.44
1250.49
11463.2
2025.99
960.835
906.782
863.956
750.875
642.961
542.936
461.313
399.635
353.146
316.597
287.66
265.299
248.158
235.09
225.212
217.977
213.063
210.714
211.414
214.015
221.621
235.078
255.698
283.542
317.631
352.823
384.672
408.421
415.021
410.211
390.805
376.499
399.738
469.002
533.327
583.035
640.145
720.681
839.772
977.822
1081.31
1153.88
1217.12
1259.58
1268.75
1211.18
1182.05
1127.1
1078.88
1033.51
994.455
962.215
935.852
915.181
898.431
885.299
877.027
870.396
865.648
863.044
861.873
861.773
862.501
863.894
865.863
868.23
870.96
873.967
877.195
880.608
884.161
887.833
891.594
895.427
899.314
903.242
907.196
911.166
915.141
919.113
923.074
927.017
930.935
934.823
938.678
942.496
946.273
950.011
953.704
957.36
960.981
964.573
968.142
971.697
975.249
978.806
982.374
985.954
989.534
993.085
996.558
999.928
1003.22
1006.41
1009.52
1012.53
1015.44
1018.25
1020.97
1023.58
1026.09
1028.5
1030.8
1032.99
1035.07
1037.03
1038.88
1040.62
1042.24
1043.75
1045.14
1046.42
1047.57
1048.62
1049.54
1050.35
1051.04
1051.62
1052.09
1052.45
1052.68
1052.8
1052.8
1052.68
1052.43
1052.02
1051.47
1050.81
1050.05
1049.18
1048.2
1047.12
1045.95
1044.67
1043.29
1041.82
1040.28
1038.6
1036.9
1035.05
1033.21
1031.2
1029.24
1027.1
1025.02
1022.76
1020.56
1018.27
1015.94
1013.58
1011.18
1008.76
1006.31
1003.85
1001.37
998.893
996.41
993.935
991.477
989.048
986.675
984.396
982.272
980.406
978.942
978.378
979.231
985.268
11463.2
2242.47
1378.03
1140.4
917.93
721.35
561.378
450.474
374.513
321.076
282.479
254.268
233.921
218.69
207.019
198.022
191.214
186.218
182.792
180.883
180.956
182.005
185.185
191.191
201.149
215.932
236.087
259.468
283.381
304.856
318.268
332.371
382.003
462.011
551.93
617.111
679.888
751.647
828.133
899.735
962.143
1016.17
1061.19
1081.13
1082.15
1038.04
999.968
957.358
921.849
882.896
852.607
825.735
804.147
786.759
773.075
762.663
754.906
749.156
745.794
744.003
742.928
742.913
743.876
745.432
747.485
749.932
752.694
755.704
758.92
762.301
765.816
769.44
773.152
776.937
780.778
784.666
788.587
792.534
796.497
800.467
804.439
808.405
812.359
816.297
820.214
824.106
827.971
831.806
835.609
839.376
843.113
846.816
850.488
854.132
857.748
861.338
864.903
868.443
871.95
875.418
878.832
882.183
885.453
888.639
891.742
894.758
897.685
900.52
903.263
905.909
908.459
910.909
913.258
915.502
917.64
919.671
921.593
923.402
925.098
926.68
928.148
929.501
930.741
931.866
932.875
933.768
934.545
935.207
935.753
936.186
936.503
936.702
936.765
936.719
936.562
936.281
935.873
935.337
934.679
933.911
933.04
932.061
930.976
929.789
928.503
927.119
925.633
924.057
922.388
920.625
918.788
916.855
914.862
912.778
910.648
908.43
906.179
903.839
901.475
899.051
896.583
894.076
891.532
888.957
886.355
883.733
881.094
878.444
875.788
873.132
870.488
867.875
865.313
862.832
860.485
858.354
856.56
855.45
855.54
858.458
11463.2
2795.11
1670.82
1181.77
833.172
592.49
447.791
357.676
300.908
264.072
238.51
219.766
205.403
194.217
185.355
178.317
172.838
168.78
166.028
164.642
164.766
165.792
168.39
173.035
180.056
190.247
204.867
223.875
247.608
280.36
329.661
399.998
505.724
598.634
665.256
727.317
785.231
833.178
871.748
906.29
938.09
950.992
942.891
911.813
883.633
848.591
817.884
787.76
762.238
739.029
720.726
705.303
693.203
683.797
676.756
671.754
668.617
666.93
666.431
666.654
667.808
669.607
671.977
674.744
677.835
681.183
684.737
688.455
692.307
696.269
700.319
704.443
708.627
712.859
717.13
721.432
725.756
730.094
734.44
738.787
743.128
747.459
751.774
756.07
760.341
764.585
768.8
772.983
777.131
781.245
785.319
789.358
793.359
797.321
801.243
805.124
808.962
812.752
816.487
820.159
823.76
827.285
830.728
834.084
837.353
840.531
843.614
846.601
849.487
852.271
854.949
857.519
859.979
862.325
864.556
866.671
868.67
870.547
872.303
873.935
875.446
876.833
878.098
879.239
880.256
881.149
881.919
882.564
883.085
883.483
883.757
883.876
883.876
883.763
883.522
883.151
882.65
882.021
881.268
880.397
879.412
878.311
877.097
875.77
874.338
872.798
871.149
869.401
867.55
865.602
863.563
861.432
859.219
856.923
854.557
852.114
849.611
847.035
844.41
841.727
838.994
836.218
833.401
830.548
827.666
824.76
821.835
818.896
815.947
812.995
810.052
807.133
804.256
801.45
798.759
796.249
794.012
792.294
791.427
792.263
11463.2
3327.63
1738.79
1041.46
660.593
462.763
359.867
301.903
265.034
239.518
220.2
205.196
193.181
183.403
175.358
168.816
163.677
159.882
157.466
156.488
156.93
158.717
162.46
168.497
177.649
191.046
208.91
235.617
278.665
345.553
443.656
541.07
613.939
674.424
726.47
767.09
798.597
825.379
844.301
851.189
840.814
817.429
796.478
770.115
745.819
720.788
698.889
679.145
662.621
648.616
637.476
628.558
621.828
616.975
613.815
612.215
611.73
612.061
613.387
615.39
618.011
621.106
624.594
628.383
632.413
636.635
641.012
645.513
650.115
654.798
659.549
664.354
669.203
674.089
679.002
683.936
688.882
693.835
698.788
703.733
708.665
713.579
718.47
723.334
728.166
732.964
737.725
742.447
747.127
751.761
756.35
760.891
765.381
769.821
774.205
778.533
782.802
787.006
791.144
795.21
799.199
803.101
806.913
810.629
814.248
817.766
821.178
824.481
827.672
830.747
833.702
836.535
839.243
841.823
844.273
846.588
848.767
850.81
852.717
854.488
856.122
857.62
858.982
860.207
861.295
862.247
863.062
863.74
864.283
864.69
864.951
865.048
865.017
864.858
864.56
864.122
863.545
862.831
861.982
861.004
859.899
858.666
857.307
855.822
854.204
852.465
850.606
848.632
846.546
844.351
842.052
839.652
837.157
834.572
831.904
829.153
826.328
823.43
820.469
817.447
814.37
811.244
808.074
804.864
801.622
798.354
795.064
791.758
788.44
785.119
781.804
778.508
775.251
772.056
768.96
766.015
763.291
760.962
759.185
758.416
11463.2
3507.38
1573.06
829.607
521.863
382.808
311.209
269.107
241.806
222.677
208.484
197.062
187.322
178.757
171.378
165.27
160.566
157.47
156.037
156.282
157.996
161.549
167.625
177.194
192.547
216.669
252.706
308.875
391.66
479.64
550.484
607.883
656.911
697.44
729.431
755.873
769.767
773.264
763.408
745.933
728.409
708.37
689.617
670.037
651.797
634.556
619.648
606.81
596.208
587.592
580.909
575.921
572.5
570.69
570.048
570.253
571.499
573.526
576.265
579.575
583.37
587.557
592.065
596.829
601.8
606.938
612.211
617.593
623.063
628.604
634.201
639.843
645.521
651.224
656.946
662.681
668.42
674.155
679.88
685.588
691.271
696.926
702.547
708.129
713.669
719.162
724.606
730
735.338
740.619
745.84
750.999
756.092
761.117
766.071
770.952
775.755
780.479
785.122
789.681
794.145
798.507
802.762
806.907
810.937
814.85
818.64
822.305
825.84
829.241
832.504
835.628
838.608
841.444
844.131
846.669
849.057
851.293
853.376
855.307
857.084
858.708
860.18
861.499
862.665
863.679
864.54
865.249
865.807
866.214
866.449
866.518
866.437
866.212
865.833
865.301
864.615
863.779
862.794
861.664
860.391
858.975
857.419
855.727
853.896
851.93
849.833
847.608
845.258
842.788
840.203
837.505
834.702
831.799
828.802
825.715
822.545
819.296
815.976
812.589
809.144
805.645
802.097
798.508
794.883
791.229
787.553
783.858
780.151
776.439
772.732
769.045
765.391
761.795
758.285
754.905
751.704
748.786
746.211
744.104
11463.2
3404.62
1304.47
669.354
442.117
343.504
290.794
258.171
236.379
220.029
207.057
196.323
187.188
179.384
172.868
167.753
164.291
162.606
162.815
165.318
170.355
178.846
192.395
213.129
245.874
296.029
361.508
431.399
492.434
545.283
590.031
628.068
660.113
687.983
703.824
707.985
701.156
688.46
673.745
657.922
642.87
627.832
613.465
599.323
586.238
574.447
564.391
556
549.255
544.048
540.295
538.01
537.042
536.939
537.883
539.717
542.363
545.699
549.637
554.084
558.965
564.205
569.744
575.528
581.512
587.66
593.942
600.334
606.814
613.36
619.957
626.592
633.252
639.926
646.606
653.291
659.967
666.625
673.26
679.862
686.426
692.946
699.418
705.835
712.195
718.49
724.715
730.859
736.935
742.94
748.873
754.729
760.505
766.197
771.802
777.317
782.738
788.061
793.281
798.392
803.387
808.263
813.014
817.637
822.127
826.481
830.694
834.761
838.678
842.441
846.047
849.491
852.773
855.887
858.835
861.612
864.218
866.653
868.916
871.006
872.924
874.67
876.245
877.649
878.883
879.947
880.84
881.564
882.118
882.502
882.693
882.711
882.555
882.238
881.75
881.092
880.264
879.269
878.109
876.787
875.303
873.661
871.861
869.907
867.8
865.543
863.14
860.594
857.91
855.092
852.145
849.074
845.884
842.584
839.179
835.676
832.079
828.397
824.636
820.806
816.911
812.959
808.956
804.906
800.819
796.702
792.56
788.399
784.225
780.048
775.876
771.723
767.603
763.537
759.549
755.673
751.946
748.458
745.216
742.061
11463.2
3019.55
1054.71
563.318
395.953
319.931
278.888
253.492
235.5
222.154
211.524
202.549
194.834
188.377
183.381
180.331
179.539
181.48
186.379
194.998
208.528
228.872
258.375
298.372
346.897
397.777
447.172
492.04
531.302
565.75
595.504
622.036
640.932
647.978
646.755
638.62
627.467
615
602.743
590.945
579.761
568.822
558.243
548.118
538.901
530.846
524.125
518.734
514.647
511.806
510.346
509.907
510.398
511.865
514.231
517.401
521.296
525.829
530.924
536.508
542.516
548.888
555.563
562.49
569.626
576.933
584.382
591.951
599.616
607.342
615.111
622.907
630.713
638.51
646.279
653.988
661.65
669.284
676.886
684.447
691.958
699.413
706.808
714.139
721.4
728.585
735.693
742.726
749.667
756.514
763.26
769.904
776.441
782.868
789.181
795.378
801.454
807.405
813.226
818.914
824.467
829.878
835.143
840.257
845.216
850.016
854.651
859.118
863.412
867.527
871.461
875.209
878.77
882.142
885.322
888.309
891.102
893.701
896.107
898.319
900.339
902.166
903.803
905.249
906.507
907.575
908.455
909.147
909.651
909.96
910.065
909.977
909.704
909.245
908.598
907.764
906.742
905.535
904.146
902.576
900.828
898.903
896.803
894.532
892.091
889.485
886.716
883.791
880.712
877.486
874.117
870.612
866.976
863.218
859.344
855.363
851.28
847.106
842.849
838.517
834.117
829.657
825.142
820.579
815.977
811.342
806.682
802.002
797.31
792.616
787.931
783.266
778.634
774.053
769.545
765.136
760.853
756.766
752.856
748.725
11463.2
2556.58
892.019
513.659
378.183
313.845
278.255
256.84
242.53
231.916
223.456
216.524
211.059
207.487
206.322
207.945
213.33
222.232
234.486
251.541
274.835
304.515
339.102
376.316
413.628
449.171
482.116
511.823
538.037
561.949
582.269
592.508
594.903
591.915
585.388
576.464
567.028
557.808
549.104
540.784
532.718
524.793
517.136
509.97
503.595
498.206
493.903
490.709
488.724
487.912
487.915
488.973
490.963
493.848
497.572
502.063
507.247
513.054
519.417
526.272
533.566
541.268
549.286
557.569
566.074
574.755
583.565
592.435
601.324
610.275
619.274
628.299
637.331
646.344
655.323
664.269
673.168
682.006
690.788
699.492
708.112
716.642
725.083
733.432
741.682
749.829
757.864
765.779
773.569
781.233
788.772
796.181
803.456
810.596
817.596
824.452
831.162
837.722
844.128
850.376
856.465
862.386
868.135
873.707
879.097
884.301
889.313
894.13
898.746
903.157
907.358
911.347
915.122
918.681
922.022
925.145
928.049
930.736
933.206
935.46
937.499
939.327
940.944
942.352
943.552
944.546
945.333
945.913
946.288
946.444
946.387
946.122
945.653
944.978
944.098
943.014
941.725
940.236
938.546
936.658
934.575
932.298
929.829
927.172
924.33
921.305
918.105
914.731
911.192
907.492
903.637
899.633
895.488
891.208
886.804
882.284
877.656
872.932
868.121
863.232
858.273
853.251
848.173
843.045
837.875
832.672
827.442
822.194
816.937
811.68
806.436
801.214
796.027
790.891
785.824
780.848
775.981
771.281
766.723
761.702
11463.2
2123.1
784.318
477.875
365.056
311.807
283.378
266.378
255.192
247.254
241.448
237.532
235.92
236.395
240.251
247.688
258.455
272.083
289.235
310.367
334.731
361.262
388.714
415.934
442.057
466.467
488.776
509.626
528.475
541.047
546.064
546.8
544.645
539.826
533.706
527.1
520.647
514.475
508.54
502.718
496.962
491.313
485.943
481.075
476.93
473.662
471.367
470.236
469.992
470.733
472.421
475.059
478.601
483.018
488.29
494.342
501.08
508.44
516.357
524.76
533.556
542.595
551.96
561.633
571.578
581.747
592.098
602.602
613.233
623.917
634.608
645.274
655.902
666.441
676.865
687.165
697.333
707.362
717.244
726.998
736.63
746.145
755.545
764.833
774.003
783.046
791.95
800.704
809.3
817.739
826.018
834.138
842.095
849.887
857.51
864.961
872.236
879.332
886.246
892.976
899.516
905.861
912.005
917.941
923.665
929.171
934.456
939.515
944.342
948.934
953.287
957.397
961.264
964.886
968.263
971.395
974.281
976.927
979.333
981.5
983.43
985.128
986.599
987.842
988.861
989.657
990.231
990.58
990.708
990.604
990.276
989.722
988.948
987.955
986.741
985.308
983.657
981.79
979.708
977.413
974.907
972.192
969.271
966.146
962.821
959.3
955.59
951.694
947.619
943.373
938.961
934.39
929.669
924.803
919.804
914.682
909.45
904.119
898.699
893.198
887.625
881.989
876.296
870.551
864.765
858.944
853.096
847.233
841.365
835.503
829.658
823.839
818.057
812.328
806.666
801.089
795.611
790.282
785.089
779.238
11463.2
1956.25
761.493
472.736
366.714
318.896
294.196
280.143
271.566
266.205
263.449
262.698
264.177
268.516
275.83
285.925
298.544
313.466
330.439
349.24
369.204
389.631
409.797
428.996
447.161
464.699
481.126
493.995
500.914
503.906
504.829
503.841
501.189
497.556
493.548
489.466
485.461
481.514
477.591
473.67
469.809
466.128
462.806
460.03
457.975
456.927
456.697
457.487
459.355
462.165
465.885
470.502
475.971
482.22
489.096
496.628
504.885
513.836
523.422
533.58
544.253
555.433
567.009
578.922
591.116
603.538
616.122
628.811
641.573
654.302
666.915
679.349
691.54
703.481
715.168
726.597
737.78
748.736
759.493
770.085
780.525
790.823
800.994
811.045
820.972
830.755
840.376
849.816
859.062
868.111
876.969
885.635
894.11
902.39
910.472
918.351
926.024
933.488
940.74
947.78
954.599
961.195
967.557
973.68
979.558
985.187
990.562
995.678
1000.53
1005.12
1009.43
1013.48
1017.25
1020.74
1023.96
1026.91
1029.59
1032
1034.16
1036.05
1037.69
1039.07
1040.21
1041.11
1041.77
1042.2
1042.39
1042.34
1042.07
1041.55
1040.79
1039.81
1038.59
1037.14
1035.46
1033.55
1031.41
1029.05
1026.45
1023.64
1020.6
1017.34
1013.87
1010.18
1006.27
1002.17
997.857
993.354
988.661
983.789
978.743
973.532
968.164
962.643
956.983
951.199
945.304
939.309
933.224
927.058
920.82
914.518
908.159
901.75
895.301
888.814
882.304
875.783
869.264
862.757
856.272
849.819
843.408
837.051
830.76
824.552
818.441
812.465
806.643
800.009
11463.2
1863.36
731.548
467.512
372.272
329.232
307.596
295.856
289.29
286.122
285.203
286.385
290.148
296.276
304.579
314.749
326.513
339.595
353.782
368.624
383.63
398.364
412.775
427.025
440.573
451.742
459.343
464.378
467.518
468.866
469.201
468.618
467.281
465.552
463.646
461.651
459.62
457.559
455.509
453.546
451.819
450.572
449.957
449.873
450.566
452.127
454.491
457.596
461.276
465.884
471.478
478.063
485.611
494.095
503.53
513.869
525.056
537.033
549.712
563.009
576.849
591.166
605.843
620.786
635.919
651.21
666.512
681.698
696.639
711.274
725.547
739.403
752.798
765.72
778.17
790.158
801.735
812.963
823.937
834.766
845.45
855.999
866.452
876.827
887.104
897.244
907.213
916.979
926.509
935.816
944.902
953.773
962.427
970.863
979.076
987.06
994.812
1002.33
1009.61
1016.65
1023.44
1029.98
1036.26
1042.28
1048.02
1053.48
1058.65
1063.54
1068.14
1072.44
1076.44
1080.14
1083.53
1086.63
1089.42
1091.92
1094.12
1096.05
1097.69
1099.06
1100.16
1100.99
1101.57
1101.89
1101.94
1101.77
1101.36
1100.69
1099.79
1098.65
1097.27
1095.66
1093.82
1091.73
1089.42
1086.87
1084.08
1081.07
1077.83
1074.35
1070.65
1066.73
1062.57
1058.2
1053.61
1048.81
1043.81
1038.6
1033.2
1027.61
1021.85
1015.92
1009.83
1003.58
997.199
990.694
984.08
977.366
970.564
963.68
956.725
949.707
942.635
935.516
928.358
921.162
913.949
906.735
899.529
892.343
885.186
878.066
870.993
863.978
857.029
850.167
843.402
836.766
830.319
822.942
11463.2
1843.21
730.455
473.677
382.812
342.422
322.377
311.602
305.922
303.482
303.034
305.026
309.356
315.523
323.169
331.947
341.66
352.071
362.936
373.966
385.048
396.329
407.043
415.953
423.128
428.88
433.62
437.169
439.807
441.717
443.149
444.224
445.099
445.968
446.711
447.358
447.964
448.572
449.251
450.05
450.998
451.981
453.381
455.508
458.624
462.879
468.14
474.446
481.893
490.444
500.13
510.969
522.916
535.928
549.984
565.02
581.022
597.887
615.397
633.388
651.73
670.28
688.906
707.467
725.833
743.831
761.401
778.467
794.926
810.695
825.691
839.873
853.234
865.827
877.69
888.811
899.336
909.379
919.135
929.022
938.862
948.631
958.447
968.343
978.232
988.026
997.663
1007.1
1016.32
1025.31
1034.09
1042.63
1050.95
1059.03
1066.88
1074.48
1081.83
1088.93
1095.76
1102.35
1108.67
1114.73
1120.51
1126
1131.19
1136.09
1140.68
1144.96
1148.92
1152.57
1155.9
1158.9
1161.57
1163.92
1165.94
1167.65
1169.03
1170.13
1170.93
1171.44
1171.66
1171.59
1171.3
1170.71
1169.85
1168.76
1167.42
1165.84
1164.04
1162
1159.74
1157.24
1154.51
1151.55
1148.36
1144.94
1141.29
1137.42
1133.32
1128.99
1124.45
1119.68
1114.68
1109.47
1104.05
1098.41
1092.57
1086.53
1080.29
1073.87
1067.28
1060.53
1053.62
1046.57
1039.41
1032.13
1024.75
1017.26
1009.69
1002.04
994.321
986.54
978.708
970.835
962.929
954.988
947.042
939.105
931.186
923.294
915.436
907.622
899.862
892.164
884.537
877.002
869.573
862.269
855.201
847.12
11463.7
1816.22
728.275
481.69
393.59
354.52
335.415
324.838
318.994
316.437
315.891
317.637
321.439
326.658
332.929
339.953
347.629
355.778
364.305
372.928
381.141
388.809
395.867
402.65
408.841
414.565
419.883
424.832
429.464
433.852
437.973
441.804
445.247
448.152
451.024
453.957
457.037
460.318
463.896
467.845
472.294
477.452
483.467
490.511
498.86
508.598
519.451
531.51
544.821
559.379
575.22
592.493
611.004
630.56
650.999
672.169
693.829
715.793
737.934
760.094
782.092
803.769
824.981
845.604
865.531
884.674
902.979
920.401
936.9
952.419
966.854
980.168
992.502
1004.01
1014.82
1025.02
1034.62
1043.63
1052.13
1060.31
1068.17
1075.94
1084.08
1092.65
1101.34
1109.98
1118.47
1126.76
1134.85
1142.73
1150.38
1157.81
1165.01
1171.97
1178.69
1185.15
1191.35
1197.28
1202.96
1208.38
1213.54
1218.43
1223.05
1227.38
1231.4
1235.11
1238.51
1241.6
1244.37
1246.81
1248.91
1250.68
1252.11
1253.21
1253.97
1254.4
1254.47
1254.3
1253.82
1253.02
1251.94
1250.57
1248.95
1247.08
1244.95
1242.6
1240.01
1237.21
1234.19
1230.95
1227.5
1223.84
1219.96
1215.88
1211.58
1207.06
1202.34
1197.41
1192.26
1186.91
1181.35
1175.58
1169.6
1163.41
1157.02
1150.43
1143.65
1136.67
1129.51
1122.17
1114.67
1107.01
1099.2
1091.28
1083.24
1075.09
1066.84
1058.5
1050.07
1041.56
1032.98
1024.35
1015.68
1006.97
998.242
989.521
980.813
972.123
963.458
954.825
946.234
937.693
929.214
920.807
912.478
904.256
896.151
888.169
880.475
871.728
11462.8
1799.81
730.638
488.246
401.578
363.356
344.567
333.762
327.721
325.018
324.343
325.75
329.07
333.713
339.499
346.038
353.193
360.697
368.443
376.311
384.353
392.263
399.882
407.37
414.65
421.826
428.937
436.061
443.259
450.611
458.006
465.518
473.257
481.401
489.929
498.891
508.359
518.366
528.991
540.285
552.368
565.337
579.235
594.054
609.745
626.216
643.726
662.425
682.297
703.328
725.525
748.828
772.961
797.792
823.121
848.733
874.356
899.732
924.613
948.792
972.085
994.356
1015.5
1035.44
1054.11
1071.53
1087.71
1102.71
1116.57
1129.41
1141.31
1152.38
1162.42
1171.81
1180.7
1189.26
1197.38
1204.95
1212.02
1218.32
1224.22
1230.06
1236.38
1242.91
1249.44
1255.84
1262.07
1268.1
1273.92
1279.53
1284.93
1290.14
1295.15
1299.94
1304.5
1308.82
1312.91
1316.75
1320.37
1323.76
1326.93
1329.86
1332.53
1334.95
1337.09
1338.92
1340.46
1341.72
1342.69
1343.35
1343.7
1343.71
1343.44
1342.83
1341.92
1340.71
1339.19
1337.39
1335.33
1332.98
1330.38
1327.53
1324.45
1321.15
1317.64
1313.93
1310.02
1305.92
1301.64
1297.18
1292.53
1287.7
1282.69
1277.49
1272.11
1266.54
1260.79
1254.85
1248.73
1242.42
1235.92
1229.23
1222.35
1215.28
1208.03
1200.58
1192.96
1185.16
1177.19
1169.06
1160.77
1152.32
1143.73
1135.01
1126.17
1117.22
1108.16
1099.01
1089.76
1080.45
1071.07
1061.64
1052.16
1042.66
1033.14
1023.64
1014.17
1004.71
995.283
985.892
976.548
967.264
958.053
948.93
939.921
931.035
922.278
913.646
905.342
895.999
11461.8
1787.62
733.52
491.761
406.907
370.066
352.093
341.69
336.606
334.749
334.678
337.129
341.311
346.812
353.412
361.254
370.008
378.806
388.021
397.767
408.234
419.26
430.311
441.724
453.572
465.962
478.924
492.568
506.919
522.028
538.017
555.021
573.063
592.165
612.167
632.98
654.525
676.71
699.471
722.824
746.689
770.91
795.367
819.936
844.502
869.053
893.914
919.838
946.302
973.132
1000.12
1026.87
1053.5
1079.9
1105.96
1131.4
1156.07
1179.67
1202.02
1222.92
1242.33
1260.11
1276.26
1290.75
1303.47
1314.58
1324.22
1332.45
1339.45
1345.4
1350.69
1355.58
1360.17
1364.44
1368.41
1372.1
1375.47
1378.42
1381.27
1384.11
1387.16
1390.79
1394.4
1397.68
1400.71
1403.56
1406.28
1408.88
1411.37
1413.75
1416.01
1418.15
1420.14
1421.97
1423.64
1425.15
1426.49
1427.67
1428.7
1429.57
1430.27
1430.79
1431.11
1431.24
1431.17
1430.81
1430.21
1429.39
1428.33
1427.01
1425.42
1423.56
1421.44
1419.05
1416.41