/*--------------------------------*- C++ -*----------------------------------*\
  =========                 |
  \\      /  F ield         | OpenFOAM: The Open Source CFD Toolbox
   \\    /   O peration     | Website:  https://openfoam.org
    \\  /    A nd           | Version:  13
     \\/     M anipulation  |
\*---------------------------------------------------------------------------*/
FoamFile
{
    format      ascii;
    class       volScalarField;
    location    "1600";
    object      p;
}
// * * * * * * * * * * * * * * * * * * * * * * * * * * * * * * * * * * * * * //

dimensions      [0 2 -2 0 0 0 0];

internalField   nonuniform List<scalar> 
12225
(
-4.30415
-5.18042
-5.58916
-5.73164
-5.86865
-6.0251
-6.16731
-6.28263
-6.3755
-6.46176
-6.54429
-6.61522
-6.68029
-6.74702
-6.81253
-6.87693
-6.94352
-7.02872
-4.57626
-5.21139
-5.56413
-5.70932
-5.84239
-5.99544
-6.1364
-6.24714
-6.34254
-6.42537
-6.50082
-6.57766
-6.65056
-6.7143
-6.77573
-6.84181
-6.90678
-6.95386
-4.77724
-5.20631
-5.54436
-5.71365
-5.85261
-6.00206
-6.1384
-6.24746
-6.34114
-6.42235
-6.49705
-6.57233
-6.64289
-6.70492
-6.76443
-6.82401
-6.87841
-6.91729
-4.90451
-5.23155
-5.54137
-5.71936
-5.85432
-5.99385
-6.12443
-6.23248
-6.32508
-6.40701
-6.48301
-6.55694
-6.6259
-6.68795
-6.74646
-6.80268
-6.85315
-6.89114
-5.02581
-5.2724
-5.54989
-5.72699
-5.85832
-5.99059
-6.11695
-6.22429
-6.31634
-6.39869
-6.47501
-6.54741
-6.61472
-6.6759
-6.73271
-6.7858
-6.83294
-6.87005
-5.14389
-5.33001
-5.56472
-5.73685
-5.8656
-5.99101
-6.1116
-6.21612
-6.3063
-6.38763
-6.46298
-6.53363
-6.59921
-6.65917
-6.71434
-6.76503
-6.80993
-6.8468
-5.2492
-5.38741
-5.5875
-5.75074
-5.87523
-5.99341
-6.10771
-6.20893
-6.29742
-6.3777
-6.45202
-6.52128
-6.5854
-6.64411
-6.69786
-6.74674
-6.79011
-6.82684
-5.3434
-5.4435
-5.61666
-5.76778
-5.88669
-5.99826
-6.10663
-6.20452
-6.29128
-6.37008
-6.44289
-6.51046
-6.57279
-6.62985
-6.68191
-6.72904
-6.77101
-6.80726
-5.42653
-5.50021
-5.64823
-5.78654
-5.89986
-6.00562
-6.10827
-6.20247
-6.2869
-6.36366
-6.43456
-6.50019
-6.56059
-6.61588
-6.66626
-6.71182
-6.75256
-6.78831
-5.49954
-5.55731
-5.68089
-5.8064
-5.91389
-6.014
-6.11094
-6.20105
-6.28266
-6.35712
-6.42593
-6.48951
-6.548
-6.60155
-6.65035
-6.69451
-6.73419
-6.76929
-5.56495
-5.61159
-5.71398
-5.82647
-5.92742
-6.0218
-6.11315
-6.19899
-6.27759
-6.34968
-6.41635
-6.47793
-6.53462
-6.58655
-6.63393
-6.67688
-6.7156
-6.75015
-5.61923
-5.65785
-5.74423
-5.84495
-5.93927
-6.02828
-6.11458
-6.19643
-6.27216
-6.34201
-6.4067
-6.46656
-6.52169
-6.57229
-6.6185
-6.66048
-6.69845
-6.73241
-5.6681
-5.70054
-5.77364
-5.86327
-5.95077
-6.03444
-6.11585
-6.19373
-6.26652
-6.33408
-6.39684
-6.45497
-6.50865
-6.55797
-6.60312
-6.64421
-6.68145
-6.71493
-5.71793
-5.7449
-5.80578
-5.88399
-5.96378
-6.04145
-6.11748
-6.1909
-6.26028
-6.32516
-6.38562
-6.44183
-6.49385
-6.54178
-6.58575
-6.62585
-6.66236
-6.69521
-5.76674
-5.78896
-5.83918
-5.90641
-5.97795
-6.0492
-6.11955
-6.18815
-6.25369
-6.31548
-6.37338
-6.4274
-6.47758
-6.52397
-6.56664
-6.60571
-6.64136
-6.67364
-5.81167
-5.82992
-5.87141
-5.9288
-5.99224
-6.05694
-6.12163
-6.18528
-6.24677
-6.30522
-6.36034
-6.41201
-6.46022
-6.50495
-6.54624
-6.5842
-6.61895
-6.65063
-5.84866
-5.86388
-5.89873
-5.94814
-6.00441
-6.06312
-6.12254
-6.18159
-6.23913
-6.29431
-6.34666
-6.39598
-6.44218
-6.48522
-6.52512
-6.56194
-6.59583
-6.62685
-5.87175
-5.88501
-5.91561
-5.95968
-6.01083
-6.065
-6.12037
-6.17577
-6.23011
-6.28252
-6.33248
-6.37973
-6.42415
-6.46566
-6.5043
-6.5401
-6.5732
-6.60368
-5.87148
-5.88419
-5.91363
-5.95617
-6.0056
-6.05801
-6.11163
-6.16536
-6.21811
-6.26902
-6.31758
-6.36353
-6.40677
-6.44726
-6.48503
-6.52013
-6.5527
-6.58286
-5.8398
-5.85424
-5.88725
-5.93383
-5.98652
-6.0413
-6.09675
-6.15192
-6.20568
-6.25719
-6.30603
-6.35204
-6.39523
-6.43554
-6.4731
-6.50797
-6.54035
-6.57035
-5.79396
-5.81152
-5.85114
-5.90503
-5.96351
-6.0226
-6.08164
-6.13982
-6.19586
-6.24896
-6.29887
-6.34563
-6.38924
-6.42982
-6.46745
-6.50237
-6.53466
-6.56466
-5.73489
-5.75777
-5.80801
-5.87247
-5.93845
-6.00308
-6.06699
-6.12926
-6.18834
-6.24355
-6.29496
-6.34273
-6.38699
-6.42791
-6.46569
-6.50061
-6.53288
-6.56282
-5.6646
-5.69608
-5.76188
-5.83947
-5.91349
-5.98425
-6.05386
-6.12081
-6.18321
-6.24074
-6.29384
-6.34279
-6.38779
-6.42904
-6.46693
-6.50171
-6.53381
-6.56347
-5.58384
-5.62918
-5.71657
-5.80853
-5.88992
-5.96714
-6.0432
-6.11502
-6.18056
-6.24027
-6.29497
-6.34503
-6.39067
-6.43224
-6.47015
-6.50486
-6.53676
-6.56628
-5.49246
-5.55979
-5.67584
-5.78141
-5.86816
-5.95188
-6.03483
-6.11155
-6.18014
-6.24192
-6.29808
-6.34899
-6.39497
-6.43647
-6.47408
-6.50838
-6.5398
-6.5689
-5.39072
-5.49031
-5.64128
-5.75852
-5.84888
-5.93861
-6.02773
-6.10861
-6.17999
-6.244
-6.30186
-6.35386
-6.40035
-6.44198
-6.47945
-6.51345
-6.54459
-6.57364
-5.27937
-5.42565
-5.61034
-5.73472
-5.83017
-5.92779
-6.02267
-6.1065
-6.1797
-6.24519
-6.30415
-6.35674
-6.40331
-6.44465
-6.48169
-6.51517
-6.54575
-6.5746
-5.14767
-5.38158
-5.58953
-5.70747
-5.80824
-5.91757
-6.02091
-6.10959
-6.18617
-6.25433
-6.31522
-6.36896
-6.41587
-6.45684
-6.49316
-6.52581
-6.55564
-6.58467
-4.94813
-5.35338
-5.59357
-5.69352
-5.79017
-5.90463
-6.01199
-6.10293
-6.18146
-6.2516
-6.31435
-6.3696
-6.41752
-6.45868
-6.49409
-6.52502
-6.55299
-6.57899
-4.68167
-5.28511
-5.59116
-5.70131
-5.80515
-5.92725
-6.03911
-6.13192
-6.21108
-6.28137
-6.34401
-6.39898
-6.44639
-6.4865
-6.51926
-6.54606
-6.56965
-6.58896
-7.49928
-7.49935
-7.49939
-7.49941
-7.49923
-7.49829
-7.4961
-7.49298
-7.48986
-7.48762
-7.48726
-7.48906
-7.49263
-7.49731
-7.50238
-7.50722
-7.51129
-7.51419
-7.51584
-7.51653
-7.51654
-7.51606
-7.51531
-7.51455
-7.51398
-7.5137
-7.51363
-7.51359
-7.51341
-7.51305
-7.51254
-7.51193
-7.51117
-7.51019
-7.50897
-7.50771
-7.50691
-7.50729
-7.5092
-7.51221
-7.51536
-7.5178
-7.51941
-7.52061
-7.52195
-7.52399
-7.5271
-7.53063
-7.53359
-7.53601
-7.54031
-7.55045
-7.56978
-7.59799
-7.63382
-7.67706
-7.72829
-7.7869
-7.85089
-7.91845
-7.98764
-8.0563
-8.123
-8.18672
-8.24689
-8.30276
-8.35404
-8.40057
-8.44251
-8.47983
-8.5128
-8.54141
-8.56591
-8.58629
-8.60276
-8.61526
-8.62395
-8.62877
-8.62982
-8.62699
-8.62034
-8.60977
-8.59524
-8.57662
-8.55383
-8.52673
-8.49524
-8.45925
-8.41875
-8.37365
-8.32387
-8.26931
-8.20991
-8.14558
-8.07624
-8.00183
-7.92226
-7.83745
-7.74726
-7.65166
-7.55064
-7.44417
-7.33197
-7.21387
-7.08998
-6.9604
-6.82524
-6.68458
-6.53848
-6.38702
-6.23032
-6.06845
-5.90155
-5.72972
-5.55309
-5.37179
-5.18589
-4.99546
-4.80059
-4.60143
-4.39814
-4.19088
-3.97973
-3.76481
-3.54614
-3.32387
-3.09803
-2.86878
-2.63618
-2.40038
-2.16145
-1.91958
-1.67482
-1.42738
-1.17737
-0.925029
-0.670548
-0.414229
-0.156115
0.10373
0.365045
0.627418
0.890609
1.15438
1.4185
1.68272
1.94679
2.21046
2.47348
2.73559
2.99656
3.25613
3.51408
3.77018
4.0242
4.27594
4.52519
4.77178
5.01553
5.2563
5.49396
5.7284
5.95952
6.18724
6.41147
6.63215
6.84918
7.06251
7.27204
7.47773
7.6795
7.87728
8.071
8.26061
8.44604
8.62724
8.80434
8.9773
9.14919
9.31063
-7.50033
-7.50049
-7.50084
-7.50125
-7.50131
-7.50063
-7.49889
-7.4965
-7.4946
-7.4941
-7.49537
-7.49831
-7.50251
-7.50738
-7.51236
-7.51696
-7.52082
-7.52375
-7.52554
-7.52604
-7.52527
-7.52355
-7.52126
-7.51885
-7.51673
-7.51513
-7.51408
-7.51341
-7.51285
-7.5123
-7.51179
-7.51135
-7.5109
-7.51031
-7.50951
-7.5088
-7.50883
-7.51026
-7.51308
-7.51647
-7.51928
-7.52072
-7.52089
-7.5204
-7.51933
-7.51815
-7.51842
-7.52243
-7.52934
-7.53566
-7.54278
-7.55446
-7.5717
-7.59613
-7.63042
-7.67618
-7.73194
-7.79493
-7.86281
-7.93296
-8.00307
-8.07167
-8.13773
-8.2003
-8.25845
-8.31173
-8.36042
-8.40458
-8.44437
-8.47987
-8.51126
-8.53862
-8.56208
-8.58169
-8.59753
-8.60961
-8.61799
-8.62264
-8.62359
-8.62078
-8.6142
-8.60377
-8.58945
-8.57112
-8.5487
-8.52204
-8.49104
-8.45561
-8.41569
-8.3712
-8.32207
-8.26821
-8.20953
-8.14596
-8.07741
-8.00379
-7.92503
-7.84102
-7.75165
-7.65677
-7.55623
-7.4499
-7.33787
-7.22028
-7.09711
-6.96836
-6.83405
-6.69422
-6.54894
-6.3983
-6.2424
-6.08131
-5.91518
-5.74411
-5.56823
-5.38766
-5.20249
-5.01278
-4.81865
-4.62021
-4.41766
-4.21111
-4.00068
-3.78645
-3.56849
-3.3469
-3.12177
-2.8932
-2.66129
-2.42615
-2.18789
-1.94662
-1.70247
-1.45557
-1.20605
-0.954071
-0.699744
-0.443249
-0.184919
0.0748214
0.335797
0.597855
0.860761
1.12429
1.38821
1.65227
1.91623
2.17983
2.44281
2.70493
2.96593
3.22558
3.48364
3.73988
3.99408
4.24603
4.49552
4.74237
4.98641
5.22748
5.46546
5.70023
5.93169
6.15975
6.38433
6.60535
6.82275
7.03645
7.24637
7.45245
7.65462
7.85284
8.04703
8.2372
8.42331
8.60533
8.78351
8.95712
9.13142
9.29236
-7.50151
-7.5015
-7.50155
-7.50165
-7.50174
-7.5017
-7.50173
-7.50229
-7.50388
-7.50668
-7.51055
-7.51519
-7.52021
-7.52523
-7.52989
-7.53389
-7.53704
-7.53921
-7.54034
-7.54036
-7.53926
-7.53718
-7.53426
-7.53072
-7.52677
-7.52268
-7.51871
-7.51509
-7.51203
-7.50964
-7.50789
-7.50659
-7.50544
-7.50435
-7.50369
-7.50412
-7.50628
-7.51022
-7.51497
-7.51884
-7.52034
-7.51904
-7.51641
-7.51451
-7.5143
-7.51503
-7.51709
-7.52322
-7.53408
-7.54891
-7.56841
-7.59351
-7.62451
-7.66184
-7.70582
-7.75617
-7.81164
-7.87055
-7.93145
-7.9929
-8.05369
-8.11295
-8.17002
-8.22433
-8.27544
-8.32299
-8.36693
-8.40721
-8.44382
-8.47678
-8.50613
-8.53189
-8.55409
-8.57274
-8.58785
-8.59941
-8.60743
-8.61187
-8.6127
-8.60988
-8.60336
-8.59308
-8.57898
-8.56095
-8.5389
-8.51271
-8.48225
-8.44743
-8.40816
-8.36437
-8.31597
-8.26287
-8.205
-8.14224
-8.07452
-8.00173
-7.92379
-7.8406
-7.75208
-7.65813
-7.55861
-7.45341
-7.34253
-7.22603
-7.10393
-6.97623
-6.84297
-6.70419
-6.55996
-6.41035
-6.25547
-6.0954
-5.93027
-5.76018
-5.58528
-5.40568
-5.22147
-5.03273
-4.83957
-4.64212
-4.44055
-4.23498
-4.02553
-3.81225
-3.59527
-3.37463
-3.15047
-2.92284
-2.69188
-2.45766
-2.22032
-1.97994
-1.73667
-1.49061
-1.24193
-0.99077
-0.737286
-0.481612
-0.224044
0.0350603
0.295466
0.556991
0.819413
1.08251
1.34606
1.6098
1.87348
2.13686
2.39967
2.66165
2.92257
3.18218
3.44023
3.6965
3.95077
4.20282
4.45245
4.69946
4.94368
5.18496
5.42316
5.65815
5.88983
6.11812
6.34292
6.56416
6.78177
6.99567
7.20579
7.41206
7.61444
7.81285
8.00725
8.19759
8.38387
8.56614
8.74493
8.91896
9.09603
9.25266
-7.50249
-7.50223
-7.50189
-7.50183
-7.5027
-7.50491
-7.50839
-7.51283
-7.51792
-7.52337
-7.52892
-7.53433
-7.53941
-7.54397
-7.54786
-7.55094
-7.5531
-7.55429
-7.55447
-7.55361
-7.55171
-7.54885
-7.5451
-7.54054
-7.53527
-7.52941
-7.52311
-7.51664
-7.51031
-7.50448
-7.49943
-7.4953
-7.49227
-7.49067
-7.49118
-7.49438
-7.49973
-7.50562
-7.51022
-7.5125
-7.51253
-7.51137
-7.51082
-7.51208
-7.51571
-7.52232
-7.5327
-7.54766
-7.5676
-7.59252
-7.62209
-7.65589
-7.6937
-7.73527
-7.7803
-7.8284
-7.87902
-7.93148
-7.98502
-8.03886
-8.09225
-8.14454
-8.19517
-8.24366
-8.28966
-8.33287
-8.37315
-8.41035
-8.44441
-8.47528
-8.50292
-8.52732
-8.54844
-8.56626
-8.58075
-8.59187
-8.5996
-8.60388
-8.60466
-8.60189
-8.59549
-8.58541
-8.57157
-8.55387
-8.53223
-8.50652
-8.47662
-8.44241
-8.4038
-8.36071
-8.31306
-8.26075
-8.20369
-8.14178
-8.07491
-8.00299
-7.92591
-7.84359
-7.75592
-7.66281
-7.56416
-7.4599
-7.35001
-7.23451
-7.11339
-6.98666
-6.85437
-6.71655
-6.57327
-6.42461
-6.27065
-6.11151
-5.94728
-5.77811
-5.60411
-5.42539
-5.24207
-5.05422
-4.86197
-4.66544
-4.46481
-4.26018
-4.05165
-3.83932
-3.62327
-3.40358
-3.18036
-2.95367
-2.72365
-2.49036
-2.25393
-2.01444
-1.77204
-1.52682
-1.27896
-1.02859
-0.775868
-0.520967
-0.264147
-0.00569748
0.254126
0.515128
0.777081
1.03978
1.30296
1.56641
1.82984
2.09301
2.35567
2.61754
2.87839
3.13797
3.39603
3.65234
3.90669
4.15884
4.4086
4.65577
4.90017
5.14164
5.38005
5.61525
5.84715
6.07564
6.30065
6.52209
6.73989
6.95396
7.16424
7.37067
7.57318
7.77173
7.96628
8.15679
8.3433
8.52579
8.70491
8.87883
9.05664
9.20689
-7.50447
-7.50395
-7.50352
-7.50454
-7.50805
-7.51359
-7.52021
-7.5272
-7.53408
-7.54058
-7.54654
-7.55188
-7.55657
-7.56053
-7.56368
-7.56595
-7.56726
-7.56758
-7.56688
-7.56513
-7.56233
-7.55852
-7.55375
-7.54806
-7.54151
-7.53418
-7.52615
-7.51755
-7.50866
-7.4999
-7.49184
-7.48517
-7.48074
-7.47951
-7.48191
-7.48678
-7.49218
-7.49697
-7.50061
-7.50314
-7.50525
-7.50802
-7.5126
-7.51995
-7.53105
-7.54659
-7.56657
-7.59046
-7.61783
-7.64846
-7.68195
-7.71809
-7.7568
-7.79793
-7.84133
-7.88672
-7.93368
-7.98175
-8.03038
-8.07901
-8.12715
-8.17431
-8.22007
-8.26406
-8.30597
-8.34556
-8.38265
-8.41711
-8.44883
-8.47771
-8.5037
-8.52672
-8.54673
-8.56366
-8.57745
-8.58806
-8.59541
-8.59945
-8.6001
-8.5973
-8.59097
-8.58103
-8.56739
-8.54997
-8.52867
-8.50337
-8.47394
-8.44026
-8.40224
-8.35977
-8.31277
-8.26116
-8.20481
-8.14364
-8.07752
-8.00636
-7.93006
-7.84851
-7.76161
-7.66927
-7.57139
-7.46791
-7.35881
-7.24409
-7.12374
-6.99778
-6.86624
-6.72916
-6.58661
-6.43867
-6.28542
-6.12698
-5.96346
-5.79498
-5.62168
-5.44366
-5.26103
-5.07389
-4.88237
-4.68661
-4.48674
-4.28289
-4.07514
-3.86362
-3.64836
-3.42951
-3.20708
-2.98123
-2.75199
-2.51953
-2.28387
-2.04517
-1.8035
-1.55903
-1.31186
-1.06216
-0.810055
-0.555781
-0.299554
-0.0416612
0.217677
0.47824
0.739824
1.00219
1.26512
1.52833
1.79159
2.05462
2.31718
2.579
2.83983
3.09941
3.35751
3.61389
3.86832
4.12059
4.37048
4.61779
4.86235
5.104
5.34258
5.57797
5.81006
6.03874
6.26393
6.48555
6.70351
6.91775
7.1282
7.33479
7.53747
7.73617
7.93087
8.12153
8.30819
8.49074
8.66982
8.84307
9.02043
9.16373
-7.50829
-7.50743
-7.50768
-7.51139
-7.51801
-7.52579
-7.53378
-7.54147
-7.54859
-7.55504
-7.5608
-7.56585
-7.57015
-7.57363
-7.57623
-7.57789
-7.57857
-7.57821
-7.57682
-7.57436
-7.57084
-7.56629
-7.56073
-7.55418
-7.54664
-7.53816
-7.52885
-7.51888
-7.50851
-7.49827
-7.48901
-7.48173
-7.4776
-7.47704
-7.47904
-7.48203
-7.4853
-7.48898
-7.49344
-7.49896
-7.50562
-7.51405
-7.52552
-7.54084
-7.56004
-7.58275
-7.60856
-7.63714
-7.66814
-7.70137
-7.73659
-7.77369
-7.81253
-7.85299
-7.89488
-7.93797
-7.98197
-8.02653
-8.07128
-8.11583
-8.15981
-8.20289
-8.24474
-8.28506
-8.32361
-8.36016
-8.39454
-8.42661
-8.45624
-8.48333
-8.50778
-8.52951
-8.54844
-8.56449
-8.57757
-8.58763
-8.59457
-8.59832
-8.5988
-8.59593
-8.58962
-8.57978
-8.56631
-8.54913
-8.52813
-8.5032
-8.47419
-8.44099
-8.40347
-8.36155
-8.31514
-8.26413
-8.20841
-8.14787
-8.0824
-8.01188
-7.93623
-7.85532
-7.76905
-7.67732
-7.58004
-7.47716
-7.36865
-7.25449
-7.13469
-7.00927
-6.87824
-6.74166
-6.5996
-6.45213
-6.29935
-6.14137
-5.97832
-5.81032
-5.63749
-5.45996
-5.27782
-5.09119
-4.90021
-4.70502
-4.50575
-4.30252
-4.09541
-3.88454
-3.66996
-3.45177
-3.23003
-3.00486
-2.77631
-2.54451
-2.30953
-2.07148
-1.83045
-1.58659
-1.34
-1.09084
-0.839259
-0.585485
-0.329745
-0.072298
0.186648
0.446874
0.708177
0.970313
1.23305
1.49611
1.75927
2.02223
2.28475
2.54655
2.8074
3.06702
3.32518
3.58164
3.83616
4.08853
4.33854
4.58598
4.83067
5.07244
5.31116
5.54669
5.77891
6.00773
6.23306
6.45481
6.67291
6.88728
7.09784
7.30454
7.50731
7.7061
7.90087
8.09158
8.27823
8.46065
8.63944
8.81171
8.98838
9.12486
-7.51327
-7.51269
-7.51481
-7.52119
-7.52934
-7.53757
-7.54545
-7.55282
-7.55962
-7.5658
-7.57132
-7.57611
-7.58011
-7.58324
-7.58545
-7.58669
-7.58691
-7.58609
-7.58421
-7.58126
-7.57726
-7.57223
-7.56615
-7.55895
-7.55067
-7.54146
-7.5315
-7.52104
-7.51045
-7.50038
-7.4918
-7.48577
-7.48251
-7.48104
-7.4806
-7.48133
-7.48373
-7.48831
-7.4949
-7.50362
-7.51516
-7.53
-7.54812
-7.56933
-7.59344
-7.62013
-7.64907
-7.68006
-7.71289
-7.74744
-7.7835
-7.82093
-7.85957
-7.89928
-7.93988
-7.98116
-8.02291
-8.06487
-8.10677
-8.14833
-8.18927
-8.22932
-8.26822
-8.30572
-8.34163
-8.37574
-8.40791
-8.43798
-8.46584
-8.49136
-8.51445
-8.535
-8.55292
-8.56813
-8.58054
-8.59004
-8.59657
-8.60002
-8.6003
-8.59733
-8.59101
-8.58124
-8.56793
-8.55096
-8.53023
-8.50562
-8.477
-8.44422
-8.40716
-8.36573
-8.31984
-8.26936
-8.21419
-8.15419
-8.08927
-8.01929
-7.94416
-7.86376
-7.77798
-7.68671
-7.58987
-7.48741
-7.3793
-7.26552
-7.14606
-7.02095
-6.89022
-6.75391
-6.6121
-6.46489
-6.31234
-6.15461
-5.9918
-5.82406
-5.6515
-5.47425
-5.29241
-5.10612
-4.91551
-4.72073
-4.52192
-4.31916
-4.11258
-3.90222
-3.68821
-3.47056
-3.24942
-3.02481
-2.79687
-2.56562
-2.33122
-2.0937
-1.85324
-1.60987
-1.36378
-1.11506
-0.863923
-0.610564
-0.355229
-0.0981296
0.160508
0.420494
0.681592
0.943583
1.2062
1.4692
1.73229
1.99524
2.25776
2.5196
2.78049
3.04018
3.29842
3.55496
3.80959
4.06205
4.31215
4.55968
4.80446
5.04632
5.28513
5.52075
5.75306
5.98197
6.20738
6.42921
6.64738
6.86181
7.07242
7.27915
7.48194
7.68075
7.87551
8.06617
8.25271
8.43486
8.61319
8.7844
8.96043
9.0905
-7.51746
-7.51792
-7.52246
-7.5301
-7.53813
-7.54585
-7.55322
-7.56019
-7.56671
-7.57267
-7.578
-7.5826
-7.58639
-7.5893
-7.59128
-7.59227
-7.59223
-7.59114
-7.58899
-7.58578
-7.58154
-7.57623
-7.56976
-7.56217
-7.55368
-7.54447
-7.5347
-7.52466
-7.51496
-7.50645
-7.49975
-7.49474
-7.49063
-7.48723
-7.48543
-7.48593
-7.48889
-7.49482
-7.50412
-7.51683
-7.53278
-7.55174
-7.57354
-7.59793
-7.62463
-7.65343
-7.6841
-7.71646
-7.75034
-7.78558
-7.822
-7.85948
-7.89785
-7.93696
-7.97663
-8.01669
-8.05694
-8.09717
-8.13716
-8.17667
-8.21549
-8.25338
-8.29013
-8.32554
-8.35944
-8.39166
-8.42206
-8.4505
-8.47687
-8.50106
-8.52296
-8.54246
-8.55948
-8.57391
-8.58567
-8.59465
-8.60076
-8.60391
-8.60399
-8.60091
-8.59457
-8.58486
-8.57167
-8.5549
-8.53442
-8.51012
-8.48184
-8.44944
-8.41279
-8.37181
-8.32637
-8.27637
-8.22167
-8.16214
-8.09766
-8.02813
-7.95342
-7.87342
-7.788
-7.69706
-7.60051
-7.49832
-7.39043
-7.27684
-7.15755
-7.03257
-6.90193
-6.7657
-6.62395
-6.47677
-6.32427
-6.16658
-6.00383
-5.83616
-5.66369
-5.48654
-5.30484
-5.11873
-4.92835
-4.73386
-4.53537
-4.33298
-4.1268
-3.91688
-3.70332
-3.48617
-3.26551
-3.0414
-2.81395
-2.58321
-2.3493
-2.11227
-1.87226
-1.62934
-1.38366
-1.13533
-0.88457
-0.631575
-0.376573
-0.119761
0.138646
0.398451
0.659416
0.921315
1.18388
1.44685
1.70995
1.97293
2.23549
2.49739
2.75836
3.01814
3.27647
3.53313
3.78784
4.0404
4.29057
4.53818
4.78303
5.02496
5.26383
5.4995
5.73187
5.96082
6.18628
6.40815
6.62635
6.84078
7.05138
7.2581
7.46087
7.65963
7.85432
8.04487
8.23122
8.41302
8.59082
8.76095
8.93642
9.06063
-7.51908
-7.52102
-7.52722
-7.5348
-7.54224
-7.54946
-7.55648
-7.56321
-7.56955
-7.5754
-7.58065
-7.58518
-7.58891
-7.59175
-7.59366
-7.59458
-7.59448
-7.59334
-7.59115
-7.58791
-7.58361
-7.5782
-7.57164
-7.56416
-7.55598
-7.54727
-7.53831
-7.5296
-7.52166
-7.51479
-7.50881
-7.50341
-7.49855
-7.4948
-7.49319
-7.49445
-7.49902
-7.50718
-7.51891
-7.53394
-7.55207
-7.57305
-7.59661
-7.62253
-7.65055
-7.68048
-7.7121
-7.74526
-7.77976
-7.81546
-7.85218
-7.88977
-7.92807
-7.96691
-8.00611
-8.04551
-8.08491
-8.12412
-8.16294
-8.20116
-8.23858
-8.27501
-8.31026
-8.34418
-8.3766
-8.40738
-8.4364
-8.46354
-8.48869
-8.51174
-8.5326
-8.55117
-8.56736
-8.58107
-8.59222
-8.60071
-8.60642
-8.60927
-8.60915
-8.60596
-8.59959
-8.58993
-8.57687
-8.56027
-8.54003
-8.516
-8.48803
-8.45598
-8.41972
-8.37912
-8.3341
-8.28453
-8.23024
-8.17111
-8.10701
-8.03785
-7.96346
-7.88375
-7.79858
-7.70784
-7.61147
-7.50939
-7.40159
-7.28804
-7.16874
-7.04371
-6.91301
-6.77667
-6.63481
-6.48749
-6.33487
-6.17705
-6.0142
-5.84644
-5.67392
-5.49674
-5.31504
-5.12899
-4.93873
-4.74442
-4.54616
-4.34407
-4.1382
-3.92867
-3.71548
-3.49876
-3.27851
-3.05486
-2.82783
-2.59756
-2.36405
-2.12748
-1.88786
-1.64535
-1.40001
-1.15204
-0.9016
-0.648925
-0.39419
-0.13761
0.120633
0.380305
0.641197
0.903042
1.1656
1.42858
1.69173
1.95475
2.2174
2.47937
2.74043
3.00031
3.25875
3.5155
3.77032
4.02296
4.2732
4.52086
4.76576
5.00773
5.24663
5.48233
5.7147
5.94367
6.16914
6.39102
6.60919
6.8236
7.03416
7.24082
7.44352
7.64219
7.83678
8.02717
8.21327
8.39467
8.57191
8.74097
8.91594
9.03496
-7.51671
-7.51999
-7.52662
-7.53376
-7.54086
-7.54788
-7.55478
-7.56146
-7.56782
-7.57373
-7.57906
-7.58371
-7.58757
-7.59057
-7.59262
-7.59368
-7.59371
-7.59268
-7.59058
-7.58742
-7.58318
-7.57785
-7.57154
-7.56449
-7.55696
-7.54922
-7.5416
-7.5343
-7.52739
-7.5209
-7.51489
-7.50945
-7.50501
-7.50223
-7.50192
-7.50461
-7.5106
-7.52004
-7.53288
-7.54895
-7.56804
-7.5899
-7.61427
-7.64092
-7.66963
-7.7002
-7.73243
-7.76615
-7.80118
-7.83736
-7.87449
-7.91242
-7.95094
-7.98989
-8.0291
-8.06836
-8.10749
-8.14628
-8.18454
-8.22208
-8.25871
-8.29425
-8.32854
-8.36143
-8.39279
-8.4225
-8.45045
-8.47654
-8.50067
-8.52274
-8.54266
-8.56036
-8.57577
-8.58878
-8.59932
-8.6073
-8.61261
-8.61516
-8.61485
-8.61156
-8.60518
-8.59559
-8.58266
-8.56626
-8.54625
-8.52249
-8.49483
-8.46311
-8.42719
-8.38697
-8.34233
-8.29313
-8.23921
-8.18042
-8.11664
-8.04775
-7.97362
-7.8941
-7.80908
-7.71844
-7.62211
-7.52004
-7.41219
-7.29855
-7.17911
-7.05391
-6.92298
-6.78641
-6.64428
-6.4967
-6.3438
-6.18573
-6.02265
-5.85468
-5.68198
-5.50465
-5.32287
-5.13679
-4.94658
-4.75237
-4.55429
-4.35242
-4.14684
-3.93761
-3.72478
-3.50842
-3.28856
-3.0653
-2.83868
-2.60881
-2.37572
-2.13953
-1.9003
-1.65813
-1.41314
-1.16549
-0.915363
-0.662966
-0.40847
-0.152071
0.106037
0.365623
0.626463
0.88829
1.15085
1.41387
1.67706
1.94016
2.20288
2.46496
2.72612
2.9861
3.24466
3.50154
3.75646
4.00916
4.25945
4.50715
4.75207
4.99406
5.23296
5.46866
5.70103
5.92998
6.15544
6.3773
6.59543
6.80977
7.02025
7.22683
7.42942
7.62798
7.82242
8.01261
8.19844
8.37941
8.55606
8.7241
8.89857
9.0131
-7.50861
-7.51268
-7.51921
-7.52628
-7.5335
-7.54069
-7.54776
-7.55464
-7.56123
-7.5674
-7.57302
-7.57797
-7.58213
-7.58541
-7.58772
-7.58901
-7.58925
-7.58841
-7.5865
-7.58352
-7.57951
-7.57455
-7.56882
-7.56255
-7.55594
-7.54912
-7.54223
-7.53543
-7.52878
-7.52242
-7.51663
-7.51179
-7.50832
-7.50673
-7.50757
-7.51131
-7.51821
-7.5284
-7.54185
-7.55845
-7.57798
-7.60025
-7.625
-7.65205
-7.68118
-7.71223
-7.745
-7.77931
-7.81495
-7.85177
-7.88954
-7.92808
-7.96719
-8.00669
-8.04634
-8.08596
-8.12532
-8.16421
-8.20244
-8.23981
-8.27614
-8.31125
-8.34498
-8.37721
-8.4078
-8.43667
-8.46372
-8.48888
-8.51206
-8.5332
-8.55224
-8.5691
-8.58372
-8.59604
-8.60598
-8.61345
-8.61837
-8.62063
-8.62014
-8.61678
-8.61041
-8.60091
-8.58813
-8.57193
-8.55216
-8.52868
-8.50132
-8.46993
-8.43434
-8.39444
-8.35016
-8.3013
-8.24769
-8.18919
-8.12568
-8.057
-7.98305
-7.90365
-7.8187
-7.72806
-7.63169
-7.52952
-7.42152
-7.30769
-7.188
-7.06252
-6.93126
-6.79434
-6.65184
-6.50389
-6.35062
-6.19222
-6.0288
-5.86055
-5.68758
-5.51005
-5.32812
-5.14197
-4.95176
-4.75763
-4.55971
-4.35804
-4.15273
-3.94378
-3.73129
-3.51525
-3.29579
-3.07288
-2.84668
-2.61717
-2.3845
-2.14867
-1.90982
-1.66799
-1.42335
-1.17601
-0.926187
-0.674048
-0.419774
-0.163531
0.0944547
0.353976
0.614771
0.876601
1.13918
1.40225
1.6655
1.92869
2.1915
2.45367
2.71494
2.97504
3.23371
3.49071
3.74572
3.99847
4.24879
4.4965
4.74142
4.9834
5.22228
5.45794
5.69027
5.91919
6.14463
6.36645
6.58452
6.79876
7.00914
7.2156
7.41807
7.61649
7.81076
8.00075
8.18628
8.3668
8.54286
8.70993
8.88392
8.99464
-7.4933
-7.49756
-7.50424
-7.51198
-7.51987
-7.52756
-7.53504
-7.5423
-7.54929
-7.55589
-7.56196
-7.56733
-7.57188
-7.5755
-7.57814
-7.57973
-7.58026
-7.57972
-7.57813
-7.57552
-7.57198
-7.56759
-7.5625
-7.55685
-7.55079
-7.54443
-7.53789
-7.53129
-7.52483
-7.51879
-7.5135
-7.50928
-7.50656
-7.50583
-7.50754
-7.51207
-7.51964
-7.53036
-7.54421
-7.5611
-7.58086
-7.60333
-7.62831
-7.65567
-7.68519
-7.71675
-7.75012
-7.78514
-7.82159
-7.85928
-7.89798
-7.9375
-7.97761
-8.01807
-8.05864
-8.09907
-8.13911
-8.17854
-8.21714
-8.2547
-8.29104
-8.32598
-8.35939
-8.39114
-8.42114
-8.44931
-8.47556
-8.49985
-8.52212
-8.54235
-8.56047
-8.57646
-8.59027
-8.60185
-8.61115
-8.61808
-8.62258
-8.62454
-8.62386
-8.62043
-8.61409
-8.60471
-8.59211
-8.57613
-8.55662
-8.53342
-8.50637
-8.47529
-8.44001
-8.40046
-8.35648
-8.30793
-8.2546
-8.19635
-8.13305
-8.06457
-7.99074
-7.91142
-7.82648
-7.73579
-7.63931
-7.53697
-7.42877
-7.31467
-7.19469
-7.06884
-6.9372
-6.79986
-6.65693
-6.50856
-6.35489
-6.19608
-6.03231
-5.86372
-5.69046
-5.51269
-5.3306
-5.14437
-4.95417
-4.76013
-4.56235
-4.36091
-4.15585
-3.9472
-3.73504
-3.51937
-3.30028
-3.07777
-2.85197
-2.62288
-2.39062
-2.1552
-1.91673
-1.67528
-1.43099
-1.18401
-0.934508
-0.682641
-0.428575
-0.172492
0.0853846
0.344833
0.605597
0.867424
1.13003
1.39315
1.65648
1.91974
2.18265
2.44492
2.70629
2.9665
3.2253
3.48244
3.73756
3.99036
4.24069
4.48839
4.7333
4.97524
5.21408
5.4497
5.68197
5.91083
6.13625
6.35804
6.57602
6.79015
7.0004
7.20673
7.40906
7.60732
7.80142
7.99119
8.17641
8.35647
8.53196
8.69812
8.87159
8.97919
-7.47025
-7.4744
-7.48192
-7.49097
-7.49989
-7.50822
-7.5162
-7.52399
-7.53159
-7.53887
-7.5456
-7.55154
-7.55657
-7.56062
-7.56365
-7.56562
-7.56653
-7.56638
-7.56521
-7.56305
-7.55998
-7.55608
-7.55147
-7.54625
-7.54053
-7.53442
-7.52807
-7.52171
-7.51556
-7.50987
-7.50497
-7.50125
-7.49916
-7.49912
-7.50151
-7.50663
-7.51467
-7.52573
-7.53979
-7.5568
-7.57664
-7.5992
-7.62435
-7.65199
-7.68194
-7.71409
-7.74823
-7.78419
-7.82171
-7.86059
-7.90058
-7.94144
-7.9829
-8.02469
-8.06652
-8.10811
-8.14919
-8.18947
-8.22874
-8.26674
-8.30329
-8.33823
-8.37145
-8.40282
-8.43229
-8.45977
-8.48524
-8.50866
-8.52997
-8.54916
-8.56622
-8.58116
-8.59399
-8.6047
-8.61322
-8.6195
-8.62347
-8.62508
-8.62422
-8.62076
-8.61454
-8.60536
-8.59302
-8.57733
-8.55813
-8.53526
-8.50856
-8.47783
-8.44289
-8.40362
-8.35992
-8.31161
-8.25851
-8.2005
-8.13741
-8.06911
-7.99542
-7.91617
-7.83121
-7.74046
-7.64384
-7.54133
-7.4329
-7.31853
-7.19823
-7.07201
-6.93997
-6.80218
-6.65883
-6.51002
-6.35595
-6.19675
-6.03262
-5.86368
-5.69014
-5.51215
-5.32993
-5.14366
-4.95349
-4.75957
-4.56196
-4.36077
-4.15598
-3.94769
-3.73588
-3.52065
-3.30197
-3.07997
-2.85461
-2.62604
-2.39423
-2.15928
-1.92122
-1.68021
-1.43633
-1.18975
-0.940601
-0.689031
-0.43519
-0.179293
0.0784568
0.337806
0.598522
0.86032
1.12294
1.38608
1.64946
1.91279
2.17577
2.43812
2.69957
2.95985
3.21878
3.47614
3.73144
3.98428
4.23461
4.48229
4.72716
4.96907
5.20786
5.44341
5.67561
5.90442
6.12985
6.35163
6.5695
6.7835
6.99362
7.19981
7.402
7.60009
7.79401
7.98357
8.16849
8.3481
8.52303
8.68832
8.86122
8.96638
-7.44025
-7.44467
-7.45359
-7.46436
-7.4744
-7.48339
-7.49209
-7.50077
-7.50926
-7.5174
-7.525
-7.5317
-7.53728
-7.54171
-7.5451
-7.54745
-7.54876
-7.54901
-7.54822
-7.54645
-7.54375
-7.54021
-7.5359
-7.53093
-7.52542
-7.51953
-7.51342
-7.50729
-7.5014
-7.49603
-7.49155
-7.48833
-7.48679
-7.48728
-7.49014
-7.49561
-7.50386
-7.51499
-7.52901
-7.54594
-7.5657
-7.58828
-7.61355
-7.64146
-7.67187
-7.7047
-7.73971
-7.77675
-7.81556
-7.8559
-7.89748
-7.94002
-7.98317
-8.02663
-8.07003
-8.11307
-8.15541
-8.19675
-8.23683
-8.27538
-8.31222
-8.34719
-8.38017
-8.41108
-8.43988
-8.46654
-8.49101
-8.51331
-8.53338
-8.55123
-8.5669
-8.58052
-8.59217
-8.60187
-8.6095
-8.61497
-8.61827
-8.61941
-8.6184
-8.61507
-8.60917
-8.60043
-8.58856
-8.57331
-8.55453
-8.53207
-8.50581
-8.47554
-8.441
-8.4021
-8.35863
-8.31048
-8.25757
-8.19975
-8.13688
-8.06877
-7.99523
-7.91603
-7.83104
-7.74017
-7.64339
-7.54068
-7.43202
-7.31737
-7.19672
-7.07011
-6.93761
-6.79937
-6.65553
-6.50627
-6.35176
-6.19216
-6.02762
-5.85833
-5.68449
-5.50632
-5.32402
-5.13775
-4.94766
-4.75385
-4.5564
-4.35539
-4.15087
-3.9429
-3.73151
-3.51675
-3.29863
-3.07719
-2.85243
-2.62443
-2.39319
-2.1588
-1.92132
-1.68085
-1.43752
-1.19146
-0.942769
-0.691592
-0.438097
-0.182494
0.0749971
0.334131
0.594659
0.856306
1.1188
1.38183
1.64512
1.90837
2.17128
2.43356
2.69493
2.95512
3.214
3.47145
3.72686
3.97972
4.23001
4.47764
4.72246
4.96431
5.20304
5.43852
5.67065
5.89945
6.12499
6.34681
6.56459
6.77846
6.98844
7.1945
7.39655
7.59449
7.78826
7.97765
8.16228
8.34146
8.51583
8.6803
8.85257
8.95593
-7.40582
-7.41112
-7.42196
-7.43483
-7.44614
-7.45579
-7.46497
-7.47445
-7.48413
-7.49349
-7.50219
-7.50979
-7.51593
-7.52061
-7.52417
-7.52675
-7.5283
-7.52879
-7.52823
-7.52667
-7.52416
-7.52078
-7.51664
-7.51185
-7.50653
-7.50084
-7.49495
-7.48909
-7.48353
-7.47856
-7.47454
-7.47179
-7.47067
-7.47148
-7.4745
-7.47996
-7.48803
-7.49883
-7.51245
-7.52897
-7.54837
-7.57071
-7.59592
-7.62402
-7.65488
-7.68842
-7.72442
-7.76271
-7.80302
-7.84506
-7.88851
-7.93296
-7.97808
-8.02342
-8.06862
-8.11322
-8.15692
-8.19929
-8.24008
-8.279
-8.31588
-8.35057
-8.38299
-8.41309
-8.44087
-8.46634
-8.48948
-8.51031
-8.52877
-8.54486
-8.55868
-8.57054
-8.5807
-8.58931
-8.59602
-8.60057
-8.60286
-8.60318
-8.60194
-8.59888
-8.59357
-8.58557
-8.57448
-8.55994
-8.54176
-8.51995
-8.49448
-8.46506
-8.43154
-8.3936
-8.35102
-8.30354
-8.25108
-8.19359
-8.13098
-8.06305
-7.98962
-7.91044
-7.82538
-7.73437
-7.63739
-7.53444
-7.42547
-7.31047
-7.18941
-7.06232
-6.92928
-6.79048
-6.64607
-6.49624
-6.34116
-6.181
-6.01592
-5.84614
-5.67187
-5.4934
-5.31092
-5.12456
-4.93444
-4.74064
-4.54327
-4.34237
-4.13807
-3.93037
-3.71938
-3.50506
-3.28749
-3.0666
-2.84248
-2.61507
-2.38446
-2.15066
-1.9138
-1.67394
-1.43122
-1.18572
-0.937554
-0.68684
-0.433776
-0.178556
0.0785775
0.337398
0.597633
0.859023
1.12127
1.38409
1.64716
1.9102
2.1729
2.43495
2.69604
2.95589
3.21422
3.4708
3.72544
3.9779
4.22795
4.47537
4.71997
4.96159
5.2001
5.43535
5.66726
5.89593
6.12144
6.3432
6.5608
6.77453
6.98439
7.19034
7.39228
7.59012
7.78383
7.97313
8.15751
8.33626
8.5101
8.6738
8.84538
8.9476
-7.36933
-7.37579
-7.38904
-7.40402
-7.41594
-7.42603
-7.43636
-7.44721
-7.45808
-7.46854
-7.47821
-7.48658
-7.49321
-7.49815
-7.50188
-7.50457
-7.50621
-7.50674
-7.50619
-7.50464
-7.50215
-7.49885
-7.4948
-7.49017
-7.48506
-7.47966
-7.47412
-7.46867
-7.46354
-7.45898
-7.45531
-7.45276
-7.45169
-7.4523
-7.45491
-7.45972
-7.46695
-7.47679
-7.4894
-7.50493
-7.52349
-7.54523
-7.57015
-7.59833
-7.62962
-7.66398
-7.70112
-7.74091
-7.78295
-7.82697
-7.87246
-7.91906
-7.96621
-8.01349
-8.0604
-8.10649
-8.15133
-8.1945
-8.2357
-8.27464
-8.31119
-8.34519
-8.37663
-8.40549
-8.43186
-8.45573
-8.47725
-8.49637
-8.51307
-8.52703
-8.53837
-8.54746
-8.55527
-8.56249
-8.56895
-8.57388
-8.57677
-8.57773
-8.57686
-8.57419
-8.56932
-8.56191
-8.55145
-8.53747
-8.51986
-8.49872
-8.47393
-8.44538
-8.41276
-8.37582
-8.33417
-8.28748
-8.23562
-8.17859
-8.1163
-8.04862
-7.97535
-7.89628
-7.81127
-7.72027
-7.62326
-7.5202
-7.41108
-7.29586
-7.17452
-7.04708
-6.91367
-6.77445
-6.62961
-6.47931
-6.32375