/*--------------------------------*- C++ -*----------------------------------*\
  =========                 |
  \\      /  F ield         | OpenFOAM: The Open Source CFD Toolbox
   \\    /   O peration     | Website:  https://openfoam.org
    \\  /    A nd           | Version:  13
     \\/     M anipulation  |
\*---------------------------------------------------------------------------*/
FoamFile
{
    format      ascii;
    class       surfaceScalarField;
    location    "1600";
    object      phi;
}
// * * * * * * * * * * * * * * * * * * * * * * * * * * * * * * * * * * * * * //

dimensions      [0 3 -1 0 0 0 0];

internalField   nonuniform List<scalar> 
24170
(
3.05703e-06
1.3138e-07
2.9074e-06
1.4976e-07
2.76962e-06
1.37809e-07
2.64626e-06
1.2333e-07
2.53623e-06
1.09993e-07
2.4381e-06
9.80304e-08
2.35333e-06
8.47422e-08
2.28297e-06
7.03272e-08
2.2252e-06
5.77917e-08
2.17709e-06
4.81224e-08
2.13907e-06
3.80381e-08
2.11054e-06
2.85319e-08
2.08906e-06
2.14669e-08
2.07329e-06
1.57734e-08
2.06221e-06
1.10857e-08
2.05652e-06
5.70095e-09
2.05599e-06
4.92114e-10
-4.06583e-09
2.05999e-06
3.47227e-06
7.63875e-08
3.50708e-06
1.15328e-07
3.53019e-06
1.14997e-07
3.5381e-06
1.1572e-07
3.53343e-06
1.14926e-07
3.52152e-06
1.10052e-07
3.50211e-06
1.04257e-07
3.47507e-06
9.73644e-08
3.44374e-06
8.9134e-08
3.4105e-06
8.13601e-08
3.37733e-06
7.11994e-08
3.34517e-06
6.07014e-08
3.3152e-06
5.1452e-08
3.28649e-06
4.45109e-08
3.2579e-06
3.96978e-08
3.2303e-06
3.33267e-08
3.20449e-06
2.62944e-08
1.97926e-08
3.18068e-06
3.68304e-06
5.58229e-08
3.70231e-06
9.60467e-08
3.7186e-06
9.87483e-08
3.73457e-06
9.9725e-08
3.74944e-06
1.00035e-07
3.76247e-06
9.69971e-08
3.77373e-06
9.29764e-08
3.78299e-06
8.80808e-08
3.7896e-06
8.25062e-08
3.79417e-06
7.67791e-08
3.7962e-06
6.91762e-08
3.79549e-06
6.14071e-08
3.79254e-06
5.4412e-08
3.78816e-06
4.89021e-08
3.7831e-06
4.47681e-08
3.77663e-06
3.98091e-08
3.76861e-06
3.42878e-08
2.84096e-08
3.75995e-06
3.93605e-06
4.51085e-08
3.94748e-06
8.45368e-08
3.95535e-06
9.09057e-08
3.96263e-06
9.25377e-08
3.96945e-06
9.33226e-08
3.97563e-06
9.08683e-08
3.98178e-06
8.68427e-08
3.98801e-06
8.18155e-08
3.99411e-06
7.63496e-08
4.00024e-06
7.05835e-08
4.0057e-06
6.36647e-08
4.01031e-06
5.67741e-08
4.01414e-06
5.05795e-08
4.01758e-06
4.54694e-08
4.02105e-06
4.1309e-08
4.02398e-06
3.68745e-08
4.02618e-06
3.20759e-08
2.733e-08
4.02728e-06
4.2167e-06
3.54768e-08
4.22588e-06
7.5263e-08
4.2322e-06
8.46189e-08
4.23815e-06
8.65672e-08
4.24403e-06
8.74287e-08
4.24912e-06
8.57675e-08
4.25377e-06
8.21689e-08
4.25812e-06
7.74442e-08
4.26224e-06
7.22232e-08
4.26624e-06
6.6573e-08
4.26978e-06
6.01333e-08
4.27281e-06
5.37461e-08
4.27547e-06
4.79289e-08
4.27803e-06
4.29261e-08
4.28072e-06
3.86315e-08
4.28324e-06
3.43572e-08
4.28536e-06
2.99382e-08
2.57123e-08
4.28695e-06
4.51634e-06
2.81815e-08
4.52534e-06
6.61045e-08
4.53189e-06
7.79976e-08
4.53786e-06
8.05573e-08
4.54379e-06
8.14738e-08
4.54913e-06
8.03889e-08
4.554e-06
7.72628e-08
4.55846e-06
7.29209e-08
4.56259e-06
6.8034e-08
4.5664e-06
6.27018e-08
4.56967e-06
5.68224e-08
4.57237e-06
5.10041e-08
4.57468e-06
4.56068e-08
4.57681e-06
4.07874e-08
4.57894e-06
3.64967e-08
4.58092e-06
3.23623e-08
4.58257e-06
2.82729e-08
2.44588e-08
4.58383e-06
4.83788e-06
2.2975e-08
4.84653e-06
5.73937e-08
4.85375e-06
7.08002e-08
4.85978e-06
7.45079e-08
4.8655e-06
7.57406e-08
4.87087e-06
7.49971e-08
4.87583e-06
7.2287e-08
4.88038e-06
6.8359e-08
4.8846e-06
6.38155e-08
4.88845e-06
5.88508e-08
4.8918e-06
5.3482e-08
4.89463e-06
4.81719e-08
4.89709e-06
4.31606e-08
4.89932e-06
3.85638e-08
4.90144e-06
3.43769e-08
4.9034e-06
3.04093e-08
4.90505e-06
2.66147e-08
2.30994e-08
4.90637e-06
5.18345e-06
1.90839e-08
5.19131e-06
4.94886e-08
5.19862e-06
6.3472e-08
5.2048e-06
6.82921e-08
5.21055e-06
6.99617e-08
5.216e-06
6.95157e-08
5.22105e-06
6.72072e-08
5.22572e-06
6.36553e-08
5.23005e-06
5.94534e-08
5.234e-06
5.48658e-08
5.23751e-06
4.9949e-08
5.24057e-06
4.50888e-08
5.24327e-06
4.04513e-08
5.24569e-06
3.61293e-08
5.24793e-06
3.21377e-08
5.24995e-06
2.83735e-08
5.25171e-06
2.48338e-08
2.1606e-08
5.2532e-06
5.55434e-06
1.60578e-08
5.56138e-06
4.24238e-08
5.56852e-06
5.63637e-08
5.5749e-06
6.19129e-08
5.58084e-06
6.40245e-08
5.58644e-06
6.39122e-08
5.59163e-06
6.20124e-08
5.59644e-06
5.88509e-08
5.60089e-06
5.50044e-08
5.60498e-06
5.07829e-08
5.60865e-06
4.62857e-08
5.61192e-06
4.18232e-08
5.61484e-06
3.75301e-08
5.61748e-06
3.34999e-08
5.61987e-06
2.97426e-08
5.62203e-06
2.62135e-08
5.62393e-06
2.29301e-08
1.99252e-08
5.62558e-06
5.95225e-06
1.35791e-08
5.95849e-06
3.61856e-08
5.96538e-06
4.94908e-08
5.97186e-06
5.54325e-08
5.97799e-06
5.7882e-08
5.9838e-06
5.80952e-08
5.9892e-06
5.65892e-08
5.9942e-06
5.38409e-08
5.9988e-06
5.03837e-08
6.00304e-06
4.65257e-08
6.00687e-06
4.24431e-08
6.01031e-06
3.83614e-08
6.01343e-06
3.44059e-08
6.01625e-06
3.06756e-08
6.01881e-06
2.71756e-08
6.02111e-06
2.39008e-08
6.02316e-06
2.08658e-08
1.8101e-08
6.02497e-06
6.37896e-06
1.14187e-08
6.38443e-06
3.07096e-08
6.39098e-06
4.29588e-08
6.39744e-06
4.89869e-08
6.4037e-06
5.16256e-08
6.40969e-06
5.21073e-08
6.41533e-06
5.09518e-08
6.42055e-06
4.86169e-08
6.42536e-06
4.55681e-08
6.42978e-06
4.21017e-08
6.43379e-06
3.84266e-08
6.43743e-06
3.47216e-08
6.44072e-06
3.1112e-08
6.44371e-06
2.76863e-08
6.44642e-06
2.4459e-08
6.44887e-06
2.14476e-08
6.45107e-06
1.86655e-08
1.61196e-08
6.45303e-06
5.74244e-06
9.81031e-09
5.74655e-06
2.66017e-08
5.75178e-06
3.77476e-08
5.75716e-06
4.36154e-08
5.76248e-06
4.6311e-08
5.76763e-06
4.69524e-08
5.77253e-06
4.60548e-08
5.7771e-06
4.40447e-08
5.78133e-06
4.13387e-08
5.78522e-06
3.82122e-08
5.78876e-06
3.48766e-08
5.79199e-06
3.14986e-08
5.79492e-06
2.81928e-08
5.79758e-06
2.50282e-08
5.8e-06
2.2048e-08
5.80219e-06
1.92601e-08
5.80416e-06
1.6686e-08
1.43346e-08
5.80593e-06
6.99977e-06
8.19043e-09
7.00404e-06
2.23325e-08
7.00964e-06
3.21482e-08
7.01562e-06
3.76454e-08
7.02165e-06
4.02755e-08
7.02759e-06
4.10114e-08
7.0333e-06
4.03448e-08
7.03867e-06
3.86621e-08
7.04369e-06
3.63185e-08
7.04832e-06
3.35742e-08
7.05257e-06
3.06329e-08
7.05644e-06
2.76283e-08
7.05997e-06
2.46687e-08
7.06319e-06
2.18286e-08
7.06611e-06
1.91331e-08
7.06875e-06
1.66196e-08
7.07114e-06
1.42868e-08
1.21693e-08
7.0733e-06
8.53246e-06
6.5709e-09
8.5368e-06
1.79905e-08
8.54271e-06
2.62484e-08
8.54923e-06
3.11208e-08
8.55597e-06
3.35462e-08
8.56269e-06
3.42873e-08
8.56923e-06
3.38082e-08
8.57546e-06
3.24308e-08
8.58132e-06
3.04597e-08
8.58677e-06
2.813e-08
8.5918e-06
2.56045e-08
8.59642e-06
2.30183e-08
8.60065e-06
2.04559e-08
8.6045e-06
1.79788e-08
8.60802e-06
1.5629e-08
8.61121e-06
1.34269e-08
8.61411e-06
1.13909e-08
9.53133e-09
8.61672e-06
1.04008e-05
4.96263e-09
1.04052e-05
1.36415e-08
1.04113e-05
2.00982e-08
1.04184e-05
2.40993e-08
1.04258e-05
2.61347e-08
1.04333e-05
2.67882e-08
1.04407e-05
2.64236e-08
1.04478e-05
2.53255e-08
1.04545e-05
2.37217e-08
1.04609e-05
2.18063e-08
1.04668e-05
1.97296e-08
1.04722e-05
1.7586e-08
1.04772e-05
1.5458e-08
1.04818e-05
1.33936e-08
1.0486e-05
1.14346e-08
1.04898e-05
9.5963e-09
1.04933e-05
7.89992e-09
6.35212e-09
1.04965e-05
1.26784e-05
3.36638e-09
1.26827e-05
9.27406e-09
1.26891e-05
1.37391e-08
1.26966e-05
1.65879e-08
1.27047e-05
1.80497e-08
1.27131e-05
1.8478e-08
1.27213e-05
1.81546e-08
1.27294e-05
1.7279e-08
1.27371e-05
1.60227e-08
1.27444e-05
1.45307e-08
1.27512e-05
1.29081e-08
1.27576e-05
1.12398e-08
1.27634e-05
9.57996e-09
1.27689e-05
7.97675e-09
1.27738e-05
6.45123e-09
1.27784e-05
5.02979e-09
1.27826e-05
3.71367e-09
2.52539e-09
1.27864e-05
1.54548e-05
1.75678e-09
1.54593e-05
4.81635e-09
1.54659e-05
7.08437e-09
1.5474e-05
8.53351e-09
1.54828e-05
9.20339e-09
1.54921e-05
9.2671e-09
1.55013e-05
8.88367e-09
1.55104e-05
8.17312e-09
1.55192e-05
7.23796e-09
1.55276e-05
6.16131e-09
1.55355e-05
5.01496e-09
1.55429e-05
3.84756e-09
1.55498e-05
2.69949e-09
1.55561e-05
1.59594e-09
1.5562e-05
5.56847e-10
1.55675e-05
-4.06374e-10
1.55725e-05
-1.28752e-09
-2.0762e-09
1.55771e-05
1.88393e-05
5.74947e-11
1.88441e-05
3.86652e-11
1.88514e-05
-1.4106e-10
1.88602e-05
-3.47595e-10
1.88701e-05
-6.75549e-10
1.88805e-05
-1.1176e-09
1.8891e-05
-1.65074e-09
1.89015e-05
-2.24543e-09
1.89116e-05
-2.87718e-09
1.89213e-05
-3.52483e-09
1.89304e-05
-4.16814e-09
1.89391e-05
-4.79224e-09
1.89471e-05
-5.38332e-09
1.89547e-05
-5.9333e-09
1.89617e-05
-6.43435e-09
1.89681e-05
-6.88315e-09
1.89741e-05
-7.27755e-09
-7.60992e-09
1.89797e-05
2.29653e-05
-1.92989e-09
2.2971e-05
-5.60331e-09
2.29795e-05
-8.64566e-09
2.29899e-05
-1.08001e-08
2.30016e-05
-1.23045e-08
2.30138e-05
-1.33532e-08
2.30262e-05
-1.40733e-08
2.30385e-05
-1.45427e-08
2.30505e-05
-1.48286e-08
2.30619e-05
-1.49844e-08
2.30728e-05
-1.50503e-08
2.30831e-05
-1.50508e-08
2.30927e-05
-1.50028e-08
2.31017e-05
-1.49179e-08
2.311e-05
-1.48029e-08
2.31178e-05
-1.4663e-08
2.3125e-05
-1.45018e-08
-1.43131e-08
2.31317e-05
1.68124e-05
-3.60689e-09
1.6817e-05
-1.02573e-08
1.68239e-05
-1.54941e-08
1.68321e-05
-1.90119e-08
1.68411e-05
-2.12818e-08
1.68504e-05
-2.26841e-08
1.68598e-05
-2.34603e-08
1.6869e-05
-2.37597e-08
1.68779e-05
-2.37245e-08
1.68864e-05
-2.34677e-08
1.68944e-05
-2.30712e-08
1.69019e-05
-2.25854e-08
1.6909e-05
-2.20505e-08
1.69156e-05
-2.14874e-08
1.69217e-05
-2.09168e-08
1.69274e-05
-2.03438e-08
1.69326e-05
-1.97797e-08
-1.92129e-08
1.69375e-05
1.46364e-05
-5.40137e-09
1.46413e-05
-1.51535e-08
1.46482e-05
-2.24206e-08
1.46562e-05
-2.70395e-08
1.46648e-05
-2.98452e-08
1.46735e-05
-3.14522e-08
1.46822e-05
-3.21593e-08
1.46907e-05
-3.21976e-08
1.46987e-05
-3.17849e-08
1.47063e-05
-3.10899e-08
1.47135e-05
-3.02265e-08
1.47202e-05
-2.92692e-08
1.47264e-05
-2.82697e-08
1.47322e-05
-2.72654e-08
1.47375e-05
-2.62766e-08
1.47425e-05
-2.53171e-08
1.47471e-05
-2.43925e-08
-2.34954e-08
1.47514e-05
1.27422e-05
-7.46761e-09
1.27476e-05
-2.05814e-08
1.27549e-05
-2.96992e-08
1.27629e-05
-3.50694e-08
1.27713e-05
-3.81917e-08
1.27797e-05
-3.98421e-08
1.27878e-05
-4.03582e-08
1.27957e-05
-4.00374e-08
1.28031e-05
-3.91845e-08
1.281e-05
-3.802e-08
1.28164e-05
-3.66749e-08
1.28224e-05
-3.52462e-08
1.2828e-05
-3.37966e-08
1.28331e-05
-3.23748e-08
1.28378e-05
-3.09997e-08
1.28422e-05
-2.96903e-08
1.28462e-05
-2.84453e-08
-2.72582e-08
1.285e-05
1.10935e-05
-9.99562e-09
1.10997e-05
-2.68034e-08
1.11074e-05
-3.73996e-08
1.11155e-05
-4.31507e-08
1.11237e-05
-4.6385e-08
1.11318e-05
-4.7947e-08
1.11395e-05
-4.81334e-08
1.11469e-05
-4.73641e-08
1.11537e-05
-4.6024e-08
1.116e-05
-4.43583e-08
1.11659e-05
-4.25233e-08
1.11713e-05
-4.06214e-08
1.11762e-05
-3.8736e-08
1.11807e-05
-3.69095e-08
1.11849e-05
-3.51779e-08
1.11888e-05
-3.35427e-08
1.11923e-05
-3.20136e-08
-3.05637e-08
1.11956e-05
9.65847e-06
-1.32643e-08
9.66567e-06
-3.40022e-08
9.67378e-06
-4.55163e-08
9.6819e-06
-5.12555e-08
9.68997e-06
-5.44607e-08
9.69782e-06
-5.57794e-08
9.7052e-06
-5.55224e-08
9.71207e-06
-5.42335e-08
9.71842e-06
-5.23661e-08
9.72424e-06
-5.01886e-08
9.72957e-06
-4.78522e-08
9.73443e-06
-4.54855e-08
9.73887e-06
-4.31699e-08
9.74293e-06
-4.09675e-08
9.74665e-06
-3.8897e-08
9.75008e-06
-3.69687e-08
9.75325e-06
-3.5184e-08
-3.35048e-08
9.75619e-06
8.40967e-06
-1.75782e-08
8.41801e-06
-4.23451e-08
8.42645e-06
-5.39377e-08
8.43457e-06
-5.93713e-08
8.44256e-06
-6.24434e-08
8.45019e-06
-6.34068e-08
8.45727e-06
-6.2598e-08
8.46377e-06
-6.07334e-08
8.46972e-06
-5.8312e-08
8.47514e-06
-5.55985e-08
8.48005e-06
-5.27667e-08
8.48451e-06
-4.99398e-08
8.48855e-06
-4.72141e-08
8.49223e-06
-4.46413e-08
8.49558e-06
-4.22535e-08
8.49866e-06
-4.00521e-08
8.50152e-06
-3.80259e-08
-3.61364e-08
8.50414e-06
7.32298e-06
-2.32759e-08
7.33273e-06
-5.20821e-08
7.34159e-06
-6.27877e-08
7.34991e-06
-6.76843e-08
7.358e-06
-7.05171e-08
7.36559e-06
-7.09952e-08
7.37257e-06
-6.95695e-08
7.37894e-06
-6.70939e-08
7.38472e-06
-6.40931e-08
7.38996e-06
-6.0834e-08
7.39468e-06
-5.74837e-08
7.39893e-06
-5.41853e-08
7.40275e-06
-5.10265e-08
7.40619e-06
-4.80789e-08
7.4093e-06
-4.53612e-08
7.41213e-06
-4.28774e-08
7.41473e-06
-4.06286e-08
-3.85429e-08
7.41714e-06
6.378e-06
-3.12059e-08
6.38982e-06
-6.38804e-08
6.39987e-06
-7.28269e-08
6.40933e-06
-7.71206e-08
6.41835e-06
-7.95355e-08
6.42666e-06
-7.93034e-08
6.43422e-06
-7.71141e-08
6.44105e-06
-7.39182e-08
6.44719e-06
-7.02299e-08
6.45267e-06
-6.63019e-08
6.45751e-06
-6.2324e-08
6.46176e-06
-5.84252e-08
6.46545e-06
-5.47195e-08
6.46866e-06
-5.12808e-08
6.47143e-06
-4.81274e-08
6.47382e-06
-4.52731e-08
6.47592e-06
-4.27165e-08
-4.03749e-08
6.47776e-06
5.56059e-06
-4.63178e-08
5.57752e-06
-8.07918e-08
5.5923e-06
-8.75915e-08
5.6063e-06
-9.11047e-08
5.61911e-06
-9.23283e-08
5.63032e-06
-9.0511e-08
5.63993e-06
-8.67155e-08
5.64798e-06
-8.19536e-08
5.65449e-06
-7.67311e-08
5.65954e-06
-7.1344e-08
5.66322e-06
-6.59982e-08
5.66566e-06
-6.08537e-08
5.66698e-06
-5.60351e-08
5.66735e-06
-5.16469e-08
5.66691e-06
-4.76812e-08
5.66582e-06
-4.41732e-08
5.66426e-06
-4.11475e-08
-3.86953e-08
5.66258e-06
4.87885e-06
-9.7547e-08
4.91645e-06
-1.18365e-07
4.94246e-06
-1.13584e-07
4.95902e-06
-1.07645e-07
4.96713e-06
-1.00426e-07
4.9683e-06
-9.16616e-08
4.96393e-06
-8.23349e-08
4.95516e-06
-7.3174e-08
4.94299e-06
-6.45532e-08
4.92825e-06
-5.65936e-08
4.91164e-06
-4.93765e-08
4.89375e-06
-4.29505e-08
4.87504e-06
-3.73139e-08
4.85586e-06
-3.24584e-08
4.83668e-06
-2.84894e-08
4.81792e-06
-2.54145e-08
4.79979e-06
-2.30027e-08
-2.15191e-08
4.78262e-06
4.10513e-06
3.98677e-06
3.87318e-06
3.76554e-06
3.66512e-06
3.57346e-06
3.49112e-06
3.41795e-06
3.3534e-06
3.29681e-06
3.24743e-06
3.20448e-06
3.16717e-06
3.13471e-06
3.10623e-06
3.08081e-06
3.05781e-06
3.0363e-06
-7.51349e-09
7.46571e-09
-2.05379e-08
1.29301e-08
-3.51322e-08
1.45023e-08
-4.82884e-08
1.30388e-08
-5.54466e-08
7.04827e-09
-5.07677e-08
-4.7858e-09
-3.15844e-08
-1.92977e-08
3.64786e-10
-3.20205e-08
4.13669e-08
-4.10985e-08
8.72461e-08
-4.59137e-08
1.33534e-07
-4.63478e-08
1.7716e-07
-4.36597e-08
2.15994e-07
-3.88675e-08
2.48691e-07
-3.27458e-08
2.74514e-07
-2.58335e-08
2.929e-07
-1.84556e-08
3.03678e-07
-1.07718e-08
3.06373e-07
-2.78494e-09
3.00967e-07
5.41902e-09
2.87378e-07
1.34967e-08
2.66347e-07
2.10415e-08
2.38624e-07
2.76574e-08
2.05683e-07
3.29521e-08
1.69199e-07
3.64788e-08
1.31404e-07
3.7804e-08
9.48243e-08
3.66299e-08
6.19043e-08
3.29329e-08
3.4789e-08
2.71878e-08
1.44474e-08
2.03492e-08
9.50728e-10
1.35615e-08
-6.72289e-09
7.66039e-09
-9.18942e-09
2.50923e-09
-6.49192e-09
-2.73111e-09
2.62942e-09
-9.06738e-09
1.98043e-08
-1.72207e-08
4.60978e-08
-2.61736e-08
7.85445e-08
-3.24773e-08
1.11769e-07
-3.30566e-08
1.39685e-07
-2.79318e-08
1.58826e-07
-1.90023e-08
1.676e-07
-8.78354e-09
1.67892e-07
-2.44166e-10
1.63037e-07
4.82811e-09
1.56984e-07
6.01298e-09
1.53339e-07
3.58266e-09
1.51446e-07
1.83888e-09
1.42507e-07
8.85819e-09
1.18569e-07
2.38567e-08
7.21881e-08
4.62992e-08
-2.86037e-10
7.22302e-08
-9.48611e-08
9.44845e-08
-2.0705e-07
1.11899e-07
-3.32962e-07
1.25855e-07
-4.6986e-07
1.36628e-07
-6.13741e-07
1.4386e-07
-7.5875e-07
1.44771e-07
-9.00445e-07
1.41664e-07
-1.03834e-06
1.37734e-07
-1.16899e-06
1.30637e-07
-1.29082e-06
1.21754e-07
-1.40378e-06
1.12939e-07
-1.50804e-06
1.04227e-07
-1.60277e-06
9.47062e-08
-1.68887e-06
8.61035e-08
-1.76814e-06
7.92294e-08
-1.84077e-06
7.26581e-08
-1.90767e-06
6.68557e-08
-1.96938e-06
6.17529e-08
-2.02672e-06
5.72818e-08
-2.08006e-06
5.3388e-08
-2.13008e-06
4.9948e-08
-2.17695e-06
4.69305e-08
-2.22126e-06
4.42288e-08
-2.26301e-06
4.18276e-08
-2.30269e-06
3.9632e-08
-2.34022e-06
3.76477e-08
-2.37602e-06
3.57936e-08
-2.40999e-06
3.40816e-08
-2.44246e-06
3.24448e-08
-2.47329e-06
3.09103e-08
-2.50274e-06
2.94224e-08
-2.5307e-06
2.80039e-08
-2.55736e-06
2.66146e-08
-2.58264e-06
2.52769e-08
-2.60665e-06
2.39621e-08
-2.62935e-06
2.26799e-08
-2.6508e-06
2.14123e-08
-2.67099e-06
2.01603e-08
-2.68994e-06
1.89008e-08
-2.70759e-06
1.76529e-08
-2.72396e-06
1.63796e-08
-2.739e-06
1.50981e-08
-2.75274e-06
1.37904e-08
-2.76516e-06
1.24552e-08
-2.77622e-06
1.10822e-08
-2.78589e-06
9.6644e-09
-2.79411e-06
8.1955e-09
-2.80083e-06
6.66441e-09
-2.80596e-06
5.06997e-09
-2.80946e-06
3.40009e-09
-2.81123e-06
1.68049e-09
-2.81133e-06
-1.05072e-11
-2.80994e-06
-1.48776e-09
-2.80724e-06
-2.78883e-09
-2.80326e-06
-4.05232e-09
-2.798e-06
-5.3029e-09
-2.79146e-06
-6.55286e-09
-2.78365e-06
-7.80033e-09
-2.77459e-06
-9.05109e-09
-2.76426e-06
-1.02943e-08
-2.75269e-06
-1.15416e-08
-2.73988e-06
-1.27753e-08
-2.72586e-06
-1.40133e-08
-2.71061e-06
-1.52328e-08
-2.69417e-06
-1.64556e-08
-2.67653e-06
-1.76544e-08
-2.65774e-06
-1.88498e-08
-2.6378e-06
-2.00189e-08
-2.61673e-06
-2.11853e-08
-2.59452e-06
-2.2335e-08
-2.57118e-06
-2.34807e-08
-2.54671e-06
-2.46115e-08
-2.52114e-06
-2.57314e-08
-2.49448e-06
-2.68358e-08
-2.46676e-06
-2.79263e-08
-2.43799e-06
-2.90068e-08
-2.40816e-06
-3.00682e-08
-2.3773e-06
-3.11274e-08
-2.34539e-06
-3.21636e-08
-2.31245e-06
-3.32084e-08
-2.27844e-06
-3.42253e-08
-2.24345e-06
-3.52424e-08
-2.20741e-06
-3.62122e-08
-2.17041e-06
-3.71902e-08
-2.13239e-06
-3.81188e-08
-2.09347e-06
-3.9025e-08
-2.05362e-06
-3.98463e-08
-2.01295e-06
-4.06284e-08
-1.97139e-06
-4.13769e-08
-1.92888e-06
-4.2255e-08
-1.88543e-06
-4.31347e-08
-1.84118e-06
-4.39603e-08
-1.79615e-06
-4.47738e-08
-1.75035e-06
-4.55784e-08
-1.7038e-06
-4.63551e-08
-1.65654e-06
-4.71092e-08
-1.60858e-06
-4.78272e-08
-1.55998e-06
-4.85117e-08
-1.51074e-06
-4.91633e-08
-1.46093e-06
-4.97729e-08
-1.41055e-06
-5.03476e-08
-1.35966e-06
-5.08797e-08
-1.30828e-06
-5.13753e-08
-1.25648e-06
-5.18231e-08
-1.20426e-06
-5.22311e-08
-1.1517e-06
-5.25866e-08
-1.09882e-06
-5.29027e-08
-1.04569e-06
-5.31729e-08
-9.92313e-07
-5.34033e-08
-9.38738e-07
-5.36085e-08
-8.84985e-07
-5.3782e-08
-8.31073e-07
-5.39386e-08
-7.77011e-07
-5.40798e-08
-7.22811e-07
-5.42116e-08
-6.68477e-07
-5.4336e-08
-6.14012e-07
-5.44548e-08
-5.59427e-07
-5.45643e-08
-5.04727e-07
-5.46658e-08
-4.49925e-07
-5.47564e-08
-3.95028e-07
-5.4837e-08
-3.40058e-07
-5.49001e-08
-2.85037e-07
-5.49376e-08
-2.30023e-07
-5.49211e-08
-1.75108e-07
-5.48098e-08
-1.20479e-07
-5.45161e-08
-6.65273e-08
-5.3827e-08
-1.39003e-08
-5.25e-08
3.57753e-08
-4.95492e-08
8.21092e-08
-4.62221e-08
-2.21519e-08
1.04366e-07
-3.41532e-09
1.07791e-08
-9.73475e-09
1.90637e-08
-1.33155e-08
1.78643e-08
-7.91491e-09
7.38375e-09
1.15865e-08
-1.26641e-08
4.48871e-08
-3.82277e-08
8.83767e-08
-6.28816e-08
1.37327e-07
-8.10226e-08
1.86811e-07
-9.06367e-08
2.33273e-07
-9.24054e-08
2.75018e-07
-8.81306e-08
3.11189e-07
-7.98617e-08
3.41549e-07
-6.92548e-08
3.66204e-07
-5.74397e-08
3.8547e-07
-4.51161e-08
3.99642e-07
-3.26763e-08
4.09178e-07
-2.03172e-08
4.1449e-07
-8.15076e-09
4.16068e-07
3.83621e-09
4.13778e-07
1.57327e-08
4.07298e-07
2.75174e-08
3.95964e-07
3.89575e-08
3.79281e-07
4.96334e-08
3.56838e-07
5.89177e-08
3.28633e-07
6.6014e-08
2.95209e-07
7.00683e-08
2.57804e-07
7.03451e-08
2.18516e-07
6.65025e-08
1.80135e-07
5.87331e-08
1.46014e-07
4.77074e-08
1.19424e-07
3.42386e-08
1.03012e-07
1.89392e-08
9.81571e-08
2.0937e-09
1.04806e-07
-1.56738e-08
1.21454e-07
-3.38915e-08
1.44054e-07
-4.86707e-08
1.65711e-07
-5.41337e-08
1.81169e-07
-4.83884e-08
1.87745e-07
-3.44968e-08
1.85468e-07
-1.66267e-08
1.74907e-07
1.76976e-09
1.58544e-07
1.61488e-08
1.35874e-07
2.74102e-08
9.90509e-08
4.278e-08
3.77455e-08
6.47454e-08
-5.52707e-08
9.47606e-08
-1.77177e-07
1.30685e-07
-3.18963e-07
1.65584e-07
-4.70721e-07
1.98012e-07
-6.25859e-07
2.27308e-07
-7.82035e-07
2.50608e-07
-9.36811e-07
2.66586e-07
-1.08653e-06
2.75514e-07
-1.22753e-06
2.7754e-07
-1.3567e-06
2.72964e-07
-1.4742e-06
2.62176e-07
-1.57952e-06
2.46941e-07
-1.67189e-06
2.30032e-07
-1.75332e-06
2.12031e-07
-1.8255e-06
1.93896e-07
-1.88946e-06
1.76869e-07
-1.94634e-06
1.6109e-07
-1.9982e-06
1.46542e-07
-2.0457e-06
1.33608e-07
-2.08905e-06
1.22564e-07
-2.12927e-06
1.12881e-07
-2.16688e-06
1.04456e-07
-2.20225e-06
9.71235e-08
-2.23569e-06
9.07115e-08
-2.26738e-06
8.50824e-08
-2.29754e-06
8.00899e-08
-2.32624e-06
7.56339e-08
-2.35363e-06
7.1606e-08
-2.37973e-06
6.79402e-08
-2.40465e-06
6.45569e-08
-2.42837e-06
6.14166e-08
-2.45102e-06
5.8457e-08
-2.47255e-06
5.56567e-08
-2.49306e-06
5.29724e-08
-2.51252e-06
5.03955e-08
-2.53098e-06
4.78924e-08
-2.54843e-06
4.54605e-08
-2.56491e-06
4.3076e-08
-2.58038e-06
4.07386e-08
-2.59487e-06
3.84304e-08
-2.60836e-06
3.61498e-08
-2.62085e-06
3.38823e-08
-2.63234e-06
3.16181e-08
-2.6428e-06
2.93566e-08
-2.65224e-06
2.70711e-08
-2.66061e-06
2.47727e-08
-2.66792e-06
2.24465e-08
-2.67418e-06
2.00828e-08
-2.67939e-06
1.76863e-08
-2.68355e-06
1.52469e-08
-2.68666e-06
1.27702e-08
-2.68875e-06
1.02536e-08
-2.68984e-06
7.70716e-09
-2.68997e-06
5.1399e-09
-2.68921e-06
2.57097e-09
-2.68765e-06
3.39445e-11
-2.6853e-06
-2.44728e-09
-2.68196e-06
-4.89976e-09
-2.67745e-06
-7.36503e-09
-2.67172e-06
-9.83055e-09
-2.66475e-06
-1.23015e-08
-2.65653e-06
-1.47745e-08
-2.64707e-06
-1.72508e-08
-2.63638e-06
-1.97248e-08
-2.62445e-06
-2.21948e-08
-2.61131e-06
-2.46574e-08
-2.59695e-06
-2.71078e-08
-2.5814e-06
-2.95467e-08
-2.56466e-06
-3.19667e-08
-2.54674e-06
-3.43709e-08
-2.52767e-06
-3.67474e-08
-2.50745e-06
-3.91007e-08
-2.48611e-06
-4.14239e-08
-2.46365e-06
-4.37268e-08
-2.44007e-06
-4.60043e-08
-2.41538e-06
-4.82657e-08
-2.38959e-06
-5.04994e-08
-2.36272e-06
-5.27134e-08
-2.33478e-06
-5.48975e-08
-2.3058e-06
-5.70617e-08
-2.27577e-06
-5.9199e-08
-2.2447e-06
-6.13158e-08
-2.21259e-06
-6.34098e-08
-2.17946e-06
-6.5482e-08
-2.14531e-06
-6.75353e-08
-2.11014e-06
-6.95613e-08
-2.07397e-06
-7.15626e-08
-2.0368e-06
-7.35239e-08
-1.99864e-06
-7.54583e-08
-1.9595e-06
-7.73439e-08
-1.91939e-06
-7.91838e-08
-1.87829e-06
-8.09571e-08
-1.83618e-06
-8.26795e-08
-1.79305e-06
-8.43697e-08
-1.74903e-06
-8.60823e-08
-1.70418e-06
-8.77766e-08
-1.65852e-06
-8.94275e-08
-1.61209e-06
-9.10521e-08
-1.56489e-06
-9.26411e-08
-1.51695e-06
-9.41797e-08
-1.46831e-06
-9.56624e-08
-1.41899e-06
-9.70771e-08
-1.36904e-06
-9.8422e-08
-1.31847e-06
-9.96952e-08
-1.26734e-06
-1.00893e-07
-1.21567e-06
-1.02012e-07
-1.16351e-06
-1.03056e-07
-1.11088e-06
-1.04018e-07
-1.05783e-06
-1.04898e-07
-1.0044e-06
-1.05689e-07
-9.50626e-07
-1.06391e-07
-8.96556e-07
-1.07002e-07
-8.42229e-07
-1.07536e-07
-7.87675e-07
-1.07988e-07
-7.32931e-07
-1.08387e-07
-6.78013e-07
-1.08728e-07
-6.22946e-07
-1.09033e-07
-5.67737e-07
-1.09308e-07
-5.12396e-07
-1.09567e-07
-4.56926e-07
-1.09813e-07
-4.01328e-07
-1.1005e-07
-3.45608e-07
-1.10274e-07
-2.89769e-07
-1.10483e-07
-2.33819e-07
-1.10678e-07
-1.77762e-07
-1.10853e-07
-1.21612e-07
-1.11005e-07
-6.53828e-08
-1.11109e-07
-9.12547e-09
-1.11118e-07
4.70817e-08
-1.10945e-07
1.03081e-07
-1.10444e-07
1.58613e-07
-1.09279e-07
2.13166e-07
-1.06975e-07
2.66246e-07
-1.02547e-07
3.14469e-07
-9.43703e-08
-6.85608e-08
3.60956e-07
4.69918e-10
1.01916e-08
3.25136e-09
1.60667e-08
1.56732e-08
5.23179e-09
4.51453e-08
-2.22378e-08
9.13105e-08
-5.8927e-08
1.46377e-07
-9.33558e-08
2.00993e-07
-1.1755e-07
2.4924e-07
-1.29302e-07
2.88886e-07
-1.3032e-07
3.20188e-07
-1.23732e-07
3.4448e-07
-1.12452e-07
3.63218e-07
-9.86271e-08
3.77568e-07
-8.36295e-08
3.88349e-07
-6.82529e-08
3.96139e-07
-5.29245e-08
4.01286e-07
-3.78609e-08
4.0412e-07
-2.3164e-08
4.04824e-07
-8.89493e-09
4.03729e-07
4.92271e-09
4.01111e-07
1.83174e-08
3.97294e-07
3.13286e-08
3.92286e-07
4.39424e-08
3.85884e-07
5.60357e-08
3.77486e-07
6.7305e-08
3.6629e-07
7.72098e-08
3.51392e-07
8.49645e-08
3.32172e-07
8.95637e-08
3.08726e-07
8.99498e-08
2.82188e-07
8.52643e-08
2.54818e-07
7.50757e-08
2.29518e-07
5.95243e-08
2.0914e-07
3.93128e-08
1.95478e-07
1.57346e-08
1.8909e-07
-9.26152e-09
1.86666e-07
-3.14732e-08
1.81289e-07
-4.32297e-08
1.67957e-07
-4.07867e-08
1.46082e-07
-2.64374e-08
1.16316e-07
-4.73429e-09
7.84761e-08
2.12749e-08
2.89541e-08
5.12473e-08
-3.89978e-08
8.40759e-08
-1.31098e-07
1.19444e-07
-2.47356e-07
1.58983e-07
-3.83954e-07
2.01297e-07
-5.32792e-07
2.43564e-07
-6.84875e-07
2.8274e-07
-8.3522e-07
3.15905e-07
-9.78819e-07
3.41589e-07
-1.11108e-06
3.59537e-07
-1.2298e-06
3.69305e-07
-1.33436e-06
3.71094e-07
-1.42455e-06
3.65667e-07
-1.50118e-06
3.54116e-07
-1.566e-06
3.37738e-07
-1.62181e-06
3.1793e-07
-1.67114e-06
2.96226e-07
-1.71532e-06
2.74166e-07
-1.75597e-06
2.52646e-07
-1.79429e-06
2.32182e-07
-1.83076e-06
2.1331e-07
-1.86583e-06
1.96138e-07
-1.89998e-06
1.80687e-07
-1.93334e-06
1.66953e-07
-1.96568e-06
1.5489e-07
-1.99706e-06
1.44265e-07
-2.02751e-06
1.34896e-07
-2.05699e-06
1.26609e-07
-2.08552e-06
1.19236e-07
-2.11307e-06
1.12637e-07
-2.13967e-06
1.0668e-07
-2.1653e-06
1.01258e-07
-2.18997e-06
9.62759e-08
-2.21369e-06
9.16582e-08
-2.23646e-06
8.73366e-08
-2.25829e-06
8.32599e-08
-2.27919e-06
7.93784e-08
-2.29918e-06
7.56585e-08
-2.31826e-06
7.20664e-08
-2.33643e-06
6.85815e-08
-2.35371e-06
6.51787e-08
-2.37009e-06
6.18441e-08
-2.38557e-06
5.85601e-08
-2.40016e-06
5.53169e-08
-2.41384e-06
5.21013e-08
-2.4266e-06
4.89039e-08
-2.43845e-06
4.57128e-08
-2.44936e-06
4.25217e-08
-2.45934e-06
3.93132e-08
-2.46836e-06
3.60922e-08
-2.4764e-06
3.28342e-08
-2.48348e-06
2.95386e-08
-2.48958e-06
2.62039e-08
-2.49471e-06
2.28225e-08
-2.49886e-06
1.93971e-08
-2.50203e-06
1.59276e-08
-2.50423e-06
1.24189e-08
-2.50544e-06
8.88049e-09
-2.50568e-06
5.32012e-09
-2.50492e-06
1.754e-09
-2.50314e-06
-1.81087e-09
-2.50028e-06
-5.37362e-09
-2.49627e-06
-8.96104e-09
-2.4911e-06
-1.25788e-08
-2.48474e-06
-1.62172e-08
-2.47719e-06
-1.98693e-08
-2.46843e-06
-2.35301e-08
-2.45847e-06
-2.7195e-08
-2.44732e-06
-3.08557e-08
-2.43498e-06
-3.45104e-08
-2.42146e-06
-3.81492e-08
-2.40677e-06
-4.17725e-08
-2.39092e-06
-4.53706e-08
-2.37393e-06
-4.89454e-08
-2.3558e-06
-5.24872e-08
-2.33656e-06
-5.5997e-08
-2.31621e-06
-5.94679e-08
-2.29477e-06
-6.2905e-08
-2.27224e-06
-6.63059e-08
-2.24863e-06
-6.96739e-08
-2.22395e-06
-7.30093e-08
-2.1982e-06
-7.63113e-08
-2.1714e-06
-7.95808e-08
-2.14357e-06
-8.2818e-08
-2.11471e-06
-8.60254e-08
-2.08482e-06
-8.92014e-08
-2.05392e-06
-9.23497e-08
-2.022e-06
-9.54668e-08
-1.98906e-06
-9.85565e-08
-1.95511e-06
-1.01614e-07
-1.92017e-06
-1.0464e-07
-1.88422e-06
-1.07629e-07
-1.84728e-06
-1.10576e-07
-1.80935e-06
-1.13476e-07
-1.77045e-06
-1.16324e-07
-1.73057e-06
-1.19107e-07
-1.68972e-06
-1.2182e-07
-1.6479e-06
-1.24465e-07
-1.60514e-06
-1.27055e-07
-1.56149e-06
-1.29614e-07
-1.51702e-06
-1.3213e-07
-1.47175e-06
-1.34598e-07
-1.42571e-06
-1.37013e-07
-1.37892e-06
-1.39368e-07
-1.33141e-06
-1.41641e-07
-1.28321e-06
-1.43826e-07
-1.23435e-06
-1.45908e-07
-1.18486e-06
-1.47883e-07
-1.1348e-06
-1.49748e-07
-1.08418e-06
-1.51502e-07
-1.03305e-06
-1.53138e-07
-9.81437e-07
-1.54662e-07
-9.29387e-07
-1.56066e-07
-8.76932e-07
-1.57351e-07
-8.24114e-07
-1.58505e-07
-7.70969e-07
-1.59532e-07
-7.17543e-07
-1.60426e-07
-6.63866e-07
-1.61208e-07
-6.09975e-07
-1.61874e-07
-5.55897e-07
-1.62457e-07
-5.01656e-07
-1.62961e-07
-4.47268e-07
-1.6341e-07
-3.92746e-07
-1.6382e-07
-3.38094e-07
-1.64205e-07
-2.83316e-07
-1.64577e-07
-2.2841e-07
-1.64938e-07
-1.7338e-07
-1.65287e-07
-1.18228e-07
-1.65617e-07
-6.29543e-08
-1.65932e-07
-7.56136e-09
-1.66226e-07
4.7944e-08
-1.66491e-07
1.03547e-07
-1.66692e-07
1.5922e-07
-1.66773e-07
2.14902e-07
-1.6661e-07
2.70475e-07
-1.66001e-07
3.2576e-07
-1.64548e-07
3.80449e-07
-1.61649e-07
4.3415e-07
-1.56236e-07
4.85933e-07
-1.46145e-07
-1.21766e-07
5.39145e-07
-3.14934e-10
1.03758e-08
1.05635e-08
4.97362e-09
4.57061e-08
-3.00616e-08
1.02837e-07
-7.94483e-08
1.67009e-07
-1.23161e-07
2.24345e-07
-1.50731e-07
2.68247e-07
-1.61493e-07
2.98596e-07
-1.59678e-07
3.18378e-07
-1.50136e-07
3.31089e-07
-1.36467e-07
3.39423e-07
-1.20815e-07
3.45086e-07
-1.04316e-07
3.48983e-07
-8.75515e-08
3.51526e-07
-7.08248e-08
3.52888e-07
-5.4306e-08
3.531e-07
-3.81049e-08
3.52222e-07
-2.23004e-08
3.50256e-07
-6.96119e-09
3.47313e-07
7.85855e-09
3.43472e-07
2.2128e-08
3.38983e-07
3.5815e-08
3.34023e-07
4.88814e-08
3.28797e-07
6.12601e-08
3.23289e-07
7.27993e-08
3.17298e-07
8.32007e-08
3.10291e-07
9.19595e-08
3.01565e-07
9.82846e-08
2.90384e-07
1.01117e-07
2.76372e-07
9.9262e-08
2.59735e-07
9.16927e-08
2.41416e-07
7.78185e-08
2.22858e-07
5.78543e-08
2.05061e-07
3.35027e-08
1.86047e-07
9.77123e-09
1.59224e-07
-4.66216e-09
1.2084e-07
-4.7859e-09
7.16466e-08
8.39816e-09
1.20013e-08
3.32642e-08
-6.08202e-08
6.80742e-08
-1.49605e-07
1.10063e-07
-2.54928e-07
1.56544e-07
-3.75678e-07
2.04798e-07
-5.08826e-07
2.52557e-07
-6.48181e-07
2.98309e-07
-7.87405e-07
3.40494e-07
-9.20484e-07
3.76621e-07
-1.04217e-06
4.04406e-07
-1.14974e-06
4.23464e-07
-1.24224e-06
4.34072e-07
-1.31943e-06
4.36716e-07
-1.38247e-06
4.32325e-07
-1.43338e-06
4.21977e-07
-1.47461e-06
4.06872e-07
-1.50879e-06
3.88265e-07
-1.53842e-06
3.67332e-07
-1.56566e-06
3.4513e-07
-1.59206e-06
3.2259e-07
-1.61843e-06
3.005e-07
-1.64522e-06
2.79407e-07
-1.67265e-06
2.59585e-07
-1.70063e-06
2.41264e-07
-1.72902e-06
2.2451e-07
-1.75768e-06
2.09318e-07
-1.78637e-06
1.95639e-07
-1.81486e-06
1.83374e-07
-1.84298e-06
1.72381e-07
-1.8706e-06
1.62513e-07
-1.89761e-06
1.53621e-07
-1.92395e-06
1.45568e-07
-1.94954e-06
1.38231e-07
-1.97436e-06
1.31497e-07
-1.99838e-06
1.25269e-07
-2.02157e-06
1.19464e-07
-2.04392e-06
1.1401e-07
-2.06543e-06
1.08846e-07
-2.08608e-06
1.03922e-07
-2.10589e-06
9.91924e-08
-2.12485e-06
9.46231e-08
-2.14295e-06
9.01836e-08
-2.16021e-06
8.58493e-08
-2.17663e-06
8.1598e-08
-2.19219e-06
7.74118e-08
-2.2069e-06
7.3274e-08
-2.22076e-06
6.91711e-08
-2.23375e-06
6.50894e-08
-2.24587e-06
6.10182e-08
-2.25711e-06
5.69458e-08
-2.26746e-06
5.28605e-08
-2.2769e-06
4.87599e-08
-2.28544e-06
4.46148e-08
-2.29304e-06
4.04428e-08
-2.2997e-06
3.62166e-08
-2.30543e-06
3.19404e-08
-2.31021e-06
2.76067e-08
-2.31404e-06
2.32184e-08
-2.31691e-06
1.87746e-08
-2.3188e-06
1.42798e-08
-2.31971e-06
9.74055e-09
-2.3196e-06
5.16178e-09
-2.31845e-06
5.54144e-10
-2.31623e-06
-4.08317e-09
-2.3129e-06
-8.74826e-09
-2.30845e-06
-1.34559e-08
-2.30286e-06
-1.82007e-08
-2.29612e-06
-2.29778e-08
-2.28822e-06
-2.77742e-08
-2.27916e-06
-3.25843e-08
-2.26894e-06
-3.73979e-08
-2.25756e-06
-4.22065e-08
-2.24505e-06
-4.70043e-08
-2.23139e-06
-5.17803e-08
-2.2166e-06
-5.65335e-08
-2.2007e-06
-6.12515e-08
-2.18369e-06
-6.59375e-08
-2.16559e-06
-7.05778e-08
-2.14641e-06
-7.51782e-08
-2.12617e-06
-7.97298e-08
-2.10487e-06
-8.42399e-08
-2.08251e-06
-8.87001e-08