/*--------------------------------*- C++ -*----------------------------------*\
  =========                 |
  \\      /  F ield         | OpenFOAM: The Open Source CFD Toolbox
   \\    /   O peration     | Website:  https://openfoam.org
    \\  /    A nd           | Version:  13
     \\/     M anipulation  |
\*---------------------------------------------------------------------------*/
FoamFile
{
    format      ascii;
    class       volVectorField;
    location    "1600";
    object      U;
}
// * * * * * * * * * * * * * * * * * * * * * * * * * * * * * * * * * * * * * //

dimensions      [0 1 -1 0 0 0 0];

internalField   nonuniform List<vector> 
12225
(
(9.77413 0.0538243 0)
(9.35224 0.106192 0)
(8.90498 0.106852 0)
(8.48703 0.0959302 0)
(8.12034 0.0847159 0)
(7.79534 0.0689013 0)
(7.50372 0.065099 0)
(7.26229 0.0659292 0)
(7.06371 0.0591998 0)
(6.89771 0.0573784 0)
(6.76096 0.0433517 0)
(6.65866 0.0228514 0)
(6.58233 0.00718705 0)
(6.52327 0.00167044 0)
(6.48179 0.00733957 0)
(6.45471 0.00143121 0)
(6.44683 -0.0100411 0)
(6.45708 -0.0132129 0)
(10.0736 0.0514959 0)
(10.2167 0.082306 0)
(10.3124 0.0834032 0)
(10.3543 0.0831394 0)
(10.3543 0.0834492 0)
(10.3247 0.0833098 0)
(10.2865 0.0775728 0)
(10.2127 0.0692665 0)
(10.1277 0.0626416 0)
(10.0307 0.0558229 0)
(9.93135 0.0511579 0)
(9.83585 0.0470556 0)
(9.74342 0.0421974 0)
(9.66106 0.0369431 0)
(9.57704 0.0297219 0)
(9.49169 0.0236341 0)
(9.41515 0.0193005 0)
(9.34202 0.0135941 0)
(10.0236 0.0442616 0)
(10.0784 0.0737009 0)
(10.1327 0.0752945 0)
(10.1772 0.0782345 0)
(10.2173 0.0818251 0)
(10.2554 0.0834665 0)
(10.2897 0.0839712 0)
(10.3179 0.0827579 0)
(10.3398 0.0806862 0)
(10.3547 0.0780548 0)
(10.3637 0.0727584 0)
(10.3654 0.0672002 0)
(10.3601 0.062397 0)
(10.3503 0.0580141 0)
(10.3372 0.0548006 0)
(10.3213 0.050391 0)
(10.302 0.0441308 0)
(10.2784 0.0364621 0)
(10.0072 0.0333265 0)
(10.0386 0.0569942 0)
(10.0676 0.0633444 0)
(10.0877 0.0679229 0)
(10.1038 0.0713479 0)
(10.1197 0.0719705 0)
(10.1358 0.0711437 0)
(10.1518 0.0694308 0)
(10.1674 0.0671627 0)
(10.183 0.0645729 0)
(10.1977 0.0604617 0)
(10.2105 0.0559473 0)
(10.2214 0.0516782 0)
(10.2307 0.0484312 0)
(10.2394 0.0462594 0)
(10.2477 0.0431352 0)
(10.2544 0.0390698 0)
(10.2593 0.0345651 0)
(10.0029 0.023613 0)
(10.0325 0.0507466 0)
(10.0528 0.0593098 0)
(10.0678 0.0635707 0)
(10.0813 0.0669485 0)
(10.0937 0.0681933 0)
(10.1055 0.068136 0)
(10.1164 0.0670931 0)
(10.1263 0.0653768 0)
(10.1359 0.063042 0)
(10.1447 0.0594362 0)
(10.1525 0.0553678 0)
(10.1593 0.0514775 0)
(10.1655 0.0481773 0)
(10.1717 0.0453787 0)
(10.178 0.0420921 0)
(10.1836 0.0381966 0)
(10.1883 0.0341064 0)
(10.0025 0.0200901 0)
(10.0244 0.0461705 0)
(10.0433 0.0560287 0)
(10.058 0.0598982 0)
(10.0709 0.0629371 0)
(10.0829 0.0645784 0)
(10.0944 0.0646484 0)
(10.1049 0.0635606 0)
(10.1143 0.0617304 0)
(10.1231 0.0591916 0)
(10.1309 0.0556869 0)
(10.1374 0.0518389 0)
(10.143 0.0481005 0)
(10.1479 0.0447376 0)
(10.1526 0.0417185 0)
(10.1572 0.0384936 0)
(10.1613 0.0349176 0)
(10.1646 0.0313152 0)
(10.0025 0.0161484 0)
(10.0171 0.0400461 0)
(10.0357 0.050447 0)
(10.0507 0.0549582 0)
(10.0623 0.0581901 0)
(10.0734 0.0599789 0)
(10.0842 0.0601674 0)
(10.0942 0.059205 0)
(10.1032 0.0575216 0)
(10.1115 0.0552185 0)
(10.1189 0.0522044 0)
(10.1253 0.0488854 0)
(10.1307 0.0455802 0)
(10.1356 0.0424661 0)
(10.1401 0.0395251 0)
(10.1443 0.0364867 0)
(10.1481 0.0332681 0)
(10.1512 0.0300596 0)
(10.0023 0.0132878 0)
(10.0128 0.0347008 0)
(10.029 0.0454257 0)
(10.0434 0.0505526 0)
(10.0545 0.0537572 0)
(10.0651 0.0555268 0)
(10.0753 0.0558436 0)
(10.0848 0.0551033 0)
(10.0934 0.0536527 0)
(10.1014 0.051632 0)
(10.1085 0.0489659 0)
(10.1149 0.0460219 0)
(10.1204 0.0430184 0)
(10.1254 0.0400496 0)
(10.1299 0.0371588 0)
(10.134 0.0342063 0)
(10.1377 0.0311855 0)
(10.1408 0.0282439 0)
(10.0015 0.0111586 0)
(10.0099 0.0300409 0)
(10.0238 0.0408119 0)
(10.0371 0.0462436 0)
(10.0481 0.0495859 0)
(10.0582 0.0514386 0)
(10.068 0.0519193 0)
(10.077 0.0513129 0)
(10.0854 0.0499713 0)
(10.0931 0.0480702 0)
(10.1 0.0456247 0)
(10.1063 0.0429523 0)
(10.1118 0.040155 0)
(10.1168 0.0373489 0)
(10.1214 0.0345799 0)
(10.1255 0.0317712 0)
(10.1291 0.0289678 0)
(10.1324 0.0262496 0)
(10.0008 0.00940738 0)
(10.0079 0.025754 0)
(10.0196 0.0361913 0)
(10.0318 0.0418313 0)
(10.0425 0.0452938 0)
(10.0524 0.0472034 0)
(10.0618 0.0478097 0)
(10.0706 0.047313 0)
(10.0787 0.0460924 0)
(10.0861 0.0443283 0)
(10.0928 0.0421056 0)
(10.0989 0.0396359 0)
(10.1044 0.0370303 0)
(10.1094 0.0344165 0)
(10.1139 0.0317962 0)
(10.118 0.0291643 0)
(10.1217 0.0265544 0)
(10.125 0.0240259 0)
(10.0006 0.00788491 0)
(10.0064 0.0219425 0)
(10.0163 0.0316221 0)
(10.0272 0.0372708 0)
(10.0374 0.0407219 0)
(10.0469 0.0427022 0)
(10.056 0.0434041 0)
(10.0646 0.0430794 0)
(10.0725 0.0420207 0)
(10.0797 0.0404182 0)
(10.0863 0.0384117 0)
(10.0923 0.0361451 0)
(10.0977 0.0337483 0)
(10.1026 0.0313122 0)
(10.1071 0.0288505 0)
(10.1111 0.0263946 0)
(10.1148 0.0239712 0)
(10.1181 0.0216184 0)
(10.0005 0.00669094 0)
(10.0053 0.0187803 0)
(10.0138 0.027577 0)
(10.0236 0.033019 0)
(10.0331 0.0364045 0)
(10.0422 0.03836 0)
(10.051 0.0391241 0)
(10.0593 0.0389254 0)
(10.0669 0.0380233 0)
(10.074 0.0365968 0)
(10.0805 0.0347897 0)
(10.0864 0.0327339 0)
(10.0917 0.0305381 0)
(10.0966 0.028274 0)
(10.101 0.0259868 0)
(10.105 0.0236977 0)
(10.1086 0.0214401 0)
(10.1119 0.0192432 0)
(10.0005 0.00565391 0)
(10.0044 0.0159729 0)
(10.0117 0.0238041 0)
(10.0204 0.0288902 0)
(10.0292 0.0321089 0)
(10.0378 0.0340017 0)
(10.0461 0.0348078 0)
(10.0541 0.0347209 0)
(10.0616 0.0339665 0)
(10.0684 0.0327107 0)
(10.0748 0.0310938 0)
(10.0806 0.0292345 0)
(10.0859 0.0272238 0)
(10.0907 0.0251363 0)
(10.0951 0.0230117 0)
(10.099 0.0208849 0)
(10.1026 0.0187811 0)
(10.1059 0.016742 0)
(10.0004 0.00463974 0)
(10.0036 0.013143 0)
(10.0097 0.0198377 0)
(10.0174 0.0243805 0)
(10.0254 0.0273067 0)
(10.0334 0.0290432 0)
(10.0411 0.029817 0)
(10.0487 0.0297984 0)
(10.0558 0.0291724 0)
(10.0624 0.0280901 0)
(10.0686 0.026676 0)
(10.0742 0.0250274 0)
(10.0794 0.02323 0)
(10.0841 0.0213459 0)
(10.0885 0.0194175 0)
(10.0924 0.0174823 0)
(10.096 0.0155626 0)
(10.0992 0.0137012 0)
(10.0003 0.00363222 0)
(10.003 0.0102952 0)
(10.0081 0.0157041 0)
(10.0147 0.0195232 0)
(10.0218 0.0220192 0)
(10.0291 0.0235014 0)
(10.0363 0.0241653 0)
(10.0433 0.0241588 0)
(10.05 0.023625 0)
(10.0563 0.0226947 0)
(10.0622 0.0214698 0)
(10.0676 0.020038 0)
(10.0726 0.0184643 0)
(10.0772 0.016804 0)
(10.0815 0.0151005 0)
(10.0853 0.0133824 0)
(10.0889 0.0116799 0)
(10.0921 0.0100178 0)
(10.0002 0.00262921 0)
(10.0025 0.0074386 0)
(10.0067 0.0114224 0)
(10.0123 0.0143275 0)
(10.0187 0.01624 0)
(10.0252 0.0173581 0)
(10.0318 0.0178269 0)
(10.0383 0.0177662 0)
(10.0446 0.0172792 0)
(10.0505 0.0164682 0)
(10.0561 0.0154163 0)
(10.0613 0.0141887 0)
(10.0661 0.0128416 0)
(10.0705 0.0114193 0)
(10.0746 0.00995634 0)
(10.0784 0.00848043 0)
(10.0819 0.00701332 0)
(10.085 0.005581 0)
(10.0002 0.00162155 0)
(10.0021 0.00455341 0)
(10.0056 0.006985 0)
(10.0105 0.0087848 0)
(10.0161 0.00994857 0)
(10.0221 0.0105699 0)
(10.0281 0.0107459 0)
(10.0341 0.0105495 0)
(10.0399 0.0100544 0)
(10.0455 0.00932405 0)
(10.0507 0.00841836 0)
(10.0557 0.0073839 0)
(10.0603 0.00626092 0)
(10.0646 0.00508203 0)
(10.0686 0.00387157 0)
(10.0722 0.00265347 0)
(10.0756 0.00143932 0)
(10.0787 0.000256841 0)
(10.0002 0.0005767 0)
(10.0018 0.0015475 0)
(10.0049 0.00228205 0)
(10.0093 0.00279444 0)
(10.0144 0.0030291 0)
(10.0199 0.00301156 0)
(10.0255 0.00277611 0)
(10.0311 0.00235663 0)
(10.0365 0.00178413 0)
(10.0418 0.00108893 0)
(10.0468 0.000300257 0)
(10.0516 -0.000557829 0)
(10.056 -0.00146307 0)
(10.0602 -0.00239802 0)
(10.064 -0.00334672 0)
(10.0676 -0.00429675 0)
(10.0709 -0.00523867 0)
(10.0739 -0.00615439 0)
(10.0002 -0.000591434 0)
(10.0017 -0.00180568 0)
(10.0048 -0.00297061 0)
(10.009 -0.00393717 0)
(10.0139 -0.00479291 0)
(10.0192 -0.00558138 0)
(10.0246 -0.00632862 0)
(10.03 -0.00704797 0)
(10.0353 -0.00775057 0)
(10.0404 -0.0084461 0)
(10.0453 -0.00913898 0)
(10.0499 -0.00983151 0)
(10.0543 -0.010522 0)
(10.0583 -0.0112098 0)
(10.0621 -0.0118908 0)
(10.0656 -0.0125633 0)
(10.0689 -0.0132242 0)
(10.0719 -0.0138609 0)
(10.0002 -0.00175466 0)
(10.002 -0.00513136 0)
(10.0054 -0.00812196 0)
(10.01 -0.0104748 0)
(10.0152 -0.0123337 0)
(10.0207 -0.01382 0)
(10.0263 -0.0150218 0)
(10.0319 -0.0159936 0)
(10.0373 -0.0167931 0)
(10.0425 -0.0174674 0)
(10.0474 -0.0180558 0)
(10.0521 -0.0185821 0)
(10.0564 -0.0190673 0)
(10.0605 -0.0195221 0)
(10.0642 -0.0199578 0)
(10.0677 -0.0203771 0)
(10.071 -0.0207874 0)
(10.074 -0.0211758 0)
(10.0003 -0.00285444 0)
(10.0024 -0.00823137 0)
(10.0064 -0.0127875 0)
(10.0117 -0.0162321 0)
(10.0176 -0.0188297 0)
(10.0236 -0.0208079 0)
(10.0295 -0.0222989 0)
(10.0354 -0.0233973 0)
(10.0411 -0.0242024 0)
(10.0465 -0.0247986 0)
(10.0515 -0.0252519 0)
(10.0562 -0.0256056 0)
(10.0607 -0.0258952 0)
(10.0648 -0.0261433 0)
(10.0686 -0.0263686 0)
(10.0721 -0.0265798 0)
(10.0754 -0.0267866 0)
(10.0784 -0.0269779 0)
(10.0003 -0.00407227 0)
(10.0031 -0.0115706 0)
(10.0082 -0.0175949 0)
(10.0145 -0.0219313 0)
(10.0211 -0.0250953 0)
(10.0277 -0.0274297 0)
(10.0342 -0.0290942 0)
(10.0405 -0.0302212 0)
(10.0465 -0.0309563 0)
(10.0522 -0.0314222 0)
(10.0574 -0.0317011 0)
(10.0623 -0.0318574 0)
(10.0668 -0.031935 0)
(10.071 -0.0319738 0)
(10.0748 -0.0319921 0)
(10.0784 -0.03201 0)
(10.0817 -0.0320323 0)
(10.0848 -0.0320538 0)
(10.0005 -0.00551232 0)
(10.0042 -0.0153289 0)
(10.0107 -0.0226734 0)
(10.0183 -0.0276736 0)
(10.0258 -0.0312494 0)
(10.0331 -0.0338203 0)
(10.0403 -0.0355397 0)
(10.0471 -0.0365944 0)
(10.0536 -0.0371891 0)
(10.0595 -0.0374738 0)
(10.065 -0.0375474 0)
(10.07 -0.0374824 0)
(10.0747 -0.0373393 0)
(10.079 -0.0371602 0)
(10.0829 -0.0369756 0)
(10.0865 -0.0368023 0)
(10.0899 -0.0366513 0)
(10.0929 -0.0365093 0)
(10.0007 -0.00731036 0)
(10.006 -0.0196665 0)
(10.0144 -0.0280576 0)
(10.0234 -0.0334426 0)
(10.0319 -0.0372965 0)
(10.04 -0.0400064 0)
(10.0479 -0.0416827 0)
(10.0554 -0.0425808 0)
(10.0623 -0.0429675 0)
(10.0685 -0.0430198 0)
(10.0743 -0.0428474 0)
(10.0796 -0.042538 0)
(10.0844 -0.0421623 0)
(10.0888 -0.041771 0)
(10.0928 -0.0413984 0)
(10.0965 -0.0410572 0)
(10.0999 -0.0407646 0)
(10.1031 -0.0404902 0)
(10.0011 -0.00960381 0)
(10.0087 -0.0246963 0)
(10.0196 -0.033795 0)
(10.0301 -0.0392847 0)
(10.0396 -0.0432532 0)
(10.0488 -0.0459778 0)
(10.0576 -0.0475286 0)
(10.0657 -0.0482287 0)
(10.0731 -0.0483798 0)
(10.0799 -0.0481707 0)
(10.086 -0.0477212 0)
(10.0916 -0.047136 0)
(10.0966 -0.0464966 0)
(10.1012 -0.0458658 0)
(10.1054 -0.0452785 0)
(10.1092 -0.0447554 0)
(10.1128 -0.0443038 0)
(10.116 -0.043891 0)
(10.0016 -0.0126589 0)
(10.0126 -0.0303828 0)
(10.0269 -0.0398345 0)
(10.0394 -0.0453537 0)
(10.0503 -0.0493057 0)
(10.0608 -0.0518208 0)
(10.0708 -0.0530676 0)
(10.08 -0.0534897 0)
(10.0883 -0.0533971 0)
(10.0959 -0.0529585 0)
(10.1026 -0.0522879 0)
(10.1088 -0.0514916 0)
(10.1143 -0.0506553 0)
(10.1192 -0.0498459 0)
(10.1237 -0.0490997 0)
(10.1277 -0.0484382 0)
(10.1314 -0.0478743 0)
(10.1348 -0.0473589 0)
(10.003 -0.0175088 0)
(10.0195 -0.0367802 0)
(10.0391 -0.0454868 0)
(10.055 -0.0512147 0)
(10.0689 -0.0554778 0)
(10.0823 -0.0578306 0)
(10.0949 -0.0586497 0)
(10.1063 -0.0585831 0)
(10.1164 -0.0580061 0)
(10.1255 -0.0571007 0)
(10.1336 -0.0559929 0)
(10.1408 -0.0547954 0)
(10.147 -0.0536027 0)
(10.1524 -0.0524987 0)
(10.1571 -0.0515134 0)
(10.1611 -0.0506511 0)
(10.1646 -0.0499314 0)
(10.1676 -0.0492743 0)
(10.0089 -0.026181 0)
(10.0397 -0.0467762 0)
(10.0723 -0.0523107 0)
(10.0982 -0.0572652 0)
(10.1215 -0.0620395 0)
(10.1431 -0.0649791 0)
(10.1622 -0.066214 0)
(10.1782 -0.0663668 0)
(10.1913 -0.0658149 0)
(10.2017 -0.0647351 0)
(10.2095 -0.0633004 0)
(10.215 -0.0616532 0)
(10.2184 -0.0599383 0)
(10.2199 -0.0582746 0)
(10.2198 -0.0567732 0)
(10.2183 -0.0554983 0)
(10.2159 -0.0544304 0)
(10.2126 -0.0536101 0)
(10.0462 -0.0365627 0)
(10.1471 -0.0643694 0)
(10.219 -0.0685678 0)
(10.2608 -0.0698171 0)
(10.2839 -0.0707975 0)
(10.293 -0.0705048 0)
(10.2896 -0.0690303 0)
(10.2756 -0.0669001 0)
(10.2534 -0.0643805 0)
(10.2252 -0.0616241 0)
(10.1924 -0.0587343 0)
(10.1565 -0.0558201 0)
(10.1183 -0.0529778 0)
(10.079 -0.0503407 0)
(10.0389 -0.0479103 0)
(9.99952 -0.0458054 0)
(9.96118 -0.0441512 0)
(9.92449 -0.0432392 0)
(9.87532 -0.0363551 0)
(9.62654 -0.0749385 0)
(9.35671 -0.0855864 0)
(9.08886 -0.086605 0)
(8.83719 -0.0833937 0)
(8.60801 -0.077731 0)
(8.40136 -0.0708557 0)
(8.21643 -0.0634798 0)
(8.05269 -0.0561544 0)
(7.90864 -0.0491647 0)
(7.78294 -0.0426611 0)
(7.67337 -0.036723 0)
(7.57828 -0.0313792 0)
(7.49553 -0.0266026 0)
(7.4237 -0.0225462 0)
(7.3599 -0.0193507 0)
(7.30238 -0.0168689 0)
(7.25086 -0.0153215 0)
(-0.00240982 0.00690408 -7.96991e-19)
(-0.0118343 0.0118036 9.28626e-19)
(-0.0244209 0.0132237 -6.44729e-19)
(-0.0384159 0.0117922 -1.96813e-19)
(-0.0495954 0.00682825 3.02742e-19)
(-0.0510166 -0.0017384 -7.55449e-20)
(-0.0380754 -0.0134264 -7.43902e-20)
(-0.0137947 -0.0261581 4.03482e-19)
(0.0188518 -0.0362871 -2.05776e-19)
(0.0568195 -0.0416808 4.77104e-20)
(0.097762 -0.0427716 1.51777e-20)
(0.138324 -0.040603 -1.61899e-19)
(0.175682 -0.0361303 2.24093e-19)
(0.208055 -0.0301177 2.27596e-19)
(0.234509 -0.0231226 1.95164e-20)
(0.254532 -0.0155206 8.21396e-20)
(0.267788 -0.0075338 3.23541e-20)
(0.274344 0.000854824 5.64352e-20)
(0.273382 0.00958018 8.41143e-20)
(0.264813 0.0181776 9.12885e-21)
(0.249251 0.0258994 -3.13e-20)
(0.227356 0.0319281 2.68224e-19)
(0.199985 0.0355347 -3.62768e-20)
(0.1685 0.0361116 3.20742e-19)
(0.134654 0.033261 -7.4925e-20)
(0.100661 0.0270286 3.31493e-19)
(0.0689165 0.0181536 2.00723e-19)
(0.0416745 0.00835584 1.6133e-19)
(0.0204249 9.31517e-05 -8.04785e-19)
(0.00551325 -0.0047418 -1.80908e-19)
(-0.00377883 -0.00647922 -1.28918e-18)
(-0.00862604 -0.00709663 7.33233e-19)
(-0.00863035 -0.00817191 5.27651e-19)
(-0.00291066 -0.0108463 -6.61574e-19)
(0.00928966 -0.0155794 -8.55161e-19)
(0.0291873 -0.0216341 -4.07575e-20)
(0.0558694 -0.026976 1.67616e-19)
(0.0857407 -0.0288375 3.20141e-19)
(0.113965 -0.0262182 1.87089e-19)
(0.136124 -0.0199099 3.89189e-19)
(0.149459 -0.0118839 1.46986e-19)
(0.153927 -0.00438959 3.85198e-20)
(0.151223 0.000582252 -5.15141e-19)
(0.145355 0.00219013 -1.08328e-19)
(0.140502 -0.000436266 2.2859e-19)
(0.138285 -0.00771299 1.18895e-20)
(0.134407 -0.0183269 5.5401e-19)
(0.121612 -0.02553 1.83593e-19)
(0.0933068 -0.0192128 8.1635e-20)
(0.0452385 0.00079408 -8.19233e-19)
(-0.0374128 0.0211958 5.04821e-19)
(-0.136537 0.0423709 2.61267e-20)
(-0.24548 0.0656558 2.48899e-19)
(-0.365538 0.0881444 1.50412e-19)
(-0.493221 0.105276 4.89803e-20)
(-0.626295 0.108418 1.00717e-19)
(-0.760327 0.107005 1.21005e-19)
(-0.888572 0.108872 -1.20063e-19)
(-1.01145 0.104519 4.49013e-20)
(-1.12865 0.0970116 4.81472e-20)
(-1.23661 0.0908487 -1.09788e-19)
(-1.33671 0.0845826 -6.93731e-20)
(-1.4289 0.0746026 5.30308e-20)
(-1.51276 0.066118 6.21949e-20)
(-1.58939 0.0611712 1.71386e-20)
(-1.66019 0.0556783 -6.50322e-20)
(-1.72543 0.0508668 7.0839e-21)
(-1.78572 0.0466094 3.32834e-21)
(-1.84177 0.0429166 1.65118e-20)
(-1.89405 0.0397321 8.02463e-20)
(-1.94308 0.0369343 -3.97802e-21)
(-1.98922 0.034498 -5.75212e-20)
(-2.03283 0.0323398 6.17343e-20)
(-2.07414 0.0304326 2.24185e-20)
(-2.11342 0.0287114 -3.61546e-20)
(-2.15082 0.0271659 2.9958e-20)
(-2.18651 0.0257415 -4.59761e-21)
(-2.22062 0.0244376 5.74576e-20)
(-2.25325 0.0232105 2.64048e-20)
(-2.2845 0.0220716 -3.89063e-20)
(-2.31442 0.0209835 -1.10908e-20)
(-2.34307 0.0199565 2.19033e-21)
(-2.37049 0.0189628 4.34377e-20)
(-2.39672 0.0180117 5.38343e-20)
(-2.42178 0.0170817 4.73137e-20)
(-2.44569 0.0161759 -4.79431e-20)
(-2.46846 0.0152814 1.01832e-19)
(-2.49012 0.0143977 -4.03684e-21)
(-2.51065 0.0135131 7.27696e-20)
(-2.53006 0.0126367 -1.02927e-19)
(-2.54831 0.0117464 -5.51241e-20)
(-2.56539 0.010852 4.62718e-20)
(-2.58128 0.00994034 6.71871e-20)
(-2.59599 0.00900992 -1.01779e-20)
(-2.60948 0.0080529 -6.29671e-20)
(-2.62173 0.00706443 -6.24465e-20)
(-2.63269 0.00603919 6.39793e-20)
(-2.64229 0.00497087 -3.44287e-20)
(-2.65047 0.00386175 -8.2038e-20)
(-2.65717 0.00272252 -3.57151e-20)
(-2.66231 0.00160652 8.8077e-20)
(-2.66585 0.000597654 4.42191e-20)
(-2.66777 -0.000222383 6.6065e-20)
(-2.66855 -0.000926918 -4.03766e-20)
(-2.66809 -0.00160388 1.28551e-20)
(-2.66644 -0.00226518 4.46308e-21)
(-2.66359 -0.00291769 -8.17645e-21)
(-2.65954 -0.00356003 -1.76976e-20)
(-2.65429 -0.00419394 -2.65445e-20)
(-2.64786 -0.00481376 -4.31179e-20)
(-2.64023 -0.00542438 -5.89647e-20)
(-2.63142 -0.00601646 3.11478e-20)
(-2.62143 -0.00659857 -4.33671e-20)
(-2.61027 -0.00715892 -4.23031e-20)
(-2.59795 -0.00770874 7.43276e-20)
(-2.58448 -0.0082346 -4.37776e-21)
(-2.56987 -0.00874861 -4.7378e-20)
(-2.55413 -0.00924007 -4.92232e-20)
(-2.53728 -0.00972293 4.52826e-20)
(-2.51932 -0.01019 3.37608e-21)
(-2.50024 -0.0106488 1.35111e-20)
(-2.48004 -0.0110924 -8.81814e-21)
(-2.45874 -0.0115252 -2.56927e-20)
(-2.43634 -0.011944 2.16605e-20)
(-2.41288 -0.0123538 -1.90661e-20)
(-2.38834 -0.0127556 1.71872e-20)
(-2.36275 -0.0131497 2.32032e-20)
(-2.33609 -0.0135435 -8.20423e-21)
(-2.30836 -0.0139341 2.26242e-20)
(-2.27957 -0.0143388 -1.97684e-20)
(-2.24971 -0.0147417 4.72117e-20)
(-2.21878 -0.0151336 -4.04685e-21)
(-2.18679 -0.0154912 -4.82275e-20)
(-2.15376 -0.0158472 1.11243e-20)
(-2.11967 -0.0161696 -2.56015e-21)
(-2.08456 -0.0164194 1.2172e-20)
(-2.04849 -0.0165101 1.32028e-20)
(-2.01149 -0.0164081 -8.12395e-21)
(-1.97355 -0.0162803 -1.43072e-21)
(-1.93459 -0.0164963 -1.46283e-22)
(-1.89461 -0.0168909 1.09372e-20)
(-1.85369 -0.0172468 1.58346e-20)
(-1.81187 -0.0176116 -1.1181e-20)
(-1.76919 -0.0179782 -1.44149e-20)
(-1.72564 -0.0183391 -2.93188e-20)
(-1.68125 -0.0186959 -4.70708e-20)
(-1.63604 -0.0190429 -3.83386e-20)
(-1.59003 -0.0193811 -6.60846e-20)
(-1.54326 -0.0197103 3.44275e-20)
(-1.49577 -0.0200233 3.34953e-20)
(-1.44756 -0.0203279 6.00559e-20)
(-1.39869 -0.0206153 4.615e-20)
(-1.34916 -0.0208931 1.35075e-19)
(-1.29905 -0.0211511 9.38943e-21)
(-1.24834 -0.021399 6.16388e-21)
(-1.19713 -0.0216257 -1.09818e-19)
(-1.1454 -0.0218442 1.77309e-19)
(-1.09325 -0.022044 -1.07338e-19)
(-1.04066 -0.022237 1.5181e-20)
(-0.987708 -0.0224261 5.57946e-20)
(-0.93439 -0.0226087 2.06607e-20)
(-0.880728 -0.0227939 5.33282e-20)
(-0.826737 -0.0229822 2.55608e-19)
(-0.772421 -0.0231775 1.2742e-19)
(-0.717782 -0.0233819 6.07892e-20)
(-0.662822 -0.0235973 8.69196e-20)
(-0.607544 -0.023824 2.47641e-19)
(-0.551952 -0.0240644 -1.09313e-20)
(-0.496051 -0.0243196 2.90304e-19)
(-0.439847 -0.0245918 4.22357e-19)
(-0.38335 -0.0248806 4.1428e-19)
(-0.326576 -0.0251845 -1.52079e-20)
(-0.26956 -0.0254969 3.97071e-20)
(-0.212369 -0.0258242 -9.47231e-20)
(-0.155141 -0.0261231 -1.19906e-18)
(-0.0981622 -0.0262601 5.99538e-19)
(-0.0417809 -0.0260301 4.46492e-19)
(0.0110058 -0.0247021 -8.79704e-19)
(0.0695371 -0.0218844 -8.09563e-19)
(0.0865189 -0.01006 1.18355e-18)
(7.88022e-05 0.0188034 2.23528e-18)
(-0.0060136 0.0333863 -1.76509e-18)
(-0.0119797 0.0353616 -7.46839e-19)
(-0.0137993 0.0277564 2.08743e-18)
(-0.00287334 0.0088911 4.64885e-19)
(0.0235228 -0.0239462 2.07245e-19)
(0.059102 -0.0627932 -1.28662e-19)
(0.100764 -0.0962653 -4.68092e-19)
(0.144792 -0.118244 -2.61123e-20)
(0.18773 -0.127536 -3.2961e-19)
(0.227177 -0.126154 1.74321e-20)
(0.262004 -0.11719 -4.50205e-21)
(0.291781 -0.103442 1.0026e-19)
(0.316437 -0.0870006 1.43181e-20)
(0.336148 -0.0692626 -3.11974e-20)
(0.351191 -0.0510558 -2.61461e-19)
(0.361915 -0.032812 -5.64883e-20)
(0.368515 -0.0147368 2.48218e-19)
(0.371799 0.00315516 -2.89541e-19)
(0.371843 0.0207522 8.11004e-20)
(0.368289 0.0377602 7.39358e-21)
(0.360663 0.0536566 1.62603e-19)
(0.34841 0.0677156 1.9302e-19)
(0.331068 0.0789652 1.70222e-19)
(0.308405 0.0862877 2.31996e-19)
(0.280626 0.0886213 -1.40734e-19)
(0.24856 0.085232 3.84568e-20)
(0.213758 0.0761797 5.42948e-20)
(0.178405 0.0624466 -2.40165e-19)
(0.145209 0.0457736 -1.98403e-19)
(0.117157 0.0278104 -3.86951e-19)
(0.0974014 0.00957246 -1.43556e-19)
(0.087573 -0.00892594 -1.21948e-18)
(0.0891436 -0.0271373 4.67623e-19)
(0.100716 -0.0458269 -5.73853e-19)
(0.119642 -0.0634525 5.67778e-19)
(0.140577 -0.0740143 -4.47915e-19)
(0.157741 -0.0723213 1.08058e-19)
(0.167838 -0.0595588 2.55435e-19)
(0.169954 -0.0404413 -2.0121e-19)
(0.164348 -0.0203833 1.82582e-19)
(0.152453 -0.00518877 -8.13125e-20)
(0.135524 0.00343719 -3.48357e-19)
(0.11063 0.00720934 -1.1545e-18)
(0.0699124 0.0115411 -9.83892e-19)
(0.00212231 0.0283387 1.18315e-20)
(-0.100754 0.0657922 -8.53337e-19)
(-0.225166 0.109775 -1.51174e-19)
(-0.358305 0.153792 3.82656e-19)
(-0.496861 0.194076 4.5154e-19)
(-0.640365 0.226558 8.79534e-20)
(-0.783296 0.2503 -3.25336e-20)
(-0.92319 0.265417 -2.98808e-20)
(-1.05708 0.27222 -8.81072e-20)
(-1.18153 0.271611 -6.31438e-20)
(-1.29572 0.264224 -1.57051e-19)
(-1.39818 0.25089 -1.76583e-19)
(-1.48888 0.23478 -3.83565e-20)
(-1.56936 0.216993 2.48171e-20)
(-1.6401 0.198585 -1.22382e-19)
(-1.70317 0.180755 9.19386e-20)
(-1.75934 0.163949 -3.90945e-20)
(-1.81043 0.148595 -1.55035e-19)
(-1.85693 0.134759 1.18548e-20)
(-1.89983 0.122692 1.10522e-19)
(-1.9395 0.112083 -4.23326e-20)
(-1.9766 0.102837 4.65967e-21)
(-2.01159 0.0948149 -9.71727e-20)
(-2.04473 0.0878258 3.33568e-20)
(-2.07626 0.0817292 -5.66821e-20)
(-2.10634 0.0763605 1.01062e-21)
(-2.13511 0.0716182 -6.97032e-20)
(-2.16266 0.0673707 2.26642e-21)
(-2.18907 0.0635565 -4.11211e-20)
(-2.21439 0.060072 5.43543e-20)
(-2.23868 0.0568874 -9.36275e-20)
(-2.26196 0.0539206 1.2168e-20)
(-2.28428 0.0511589 -9.42425e-20)
(-2.30566 0.0485424 3.70652e-21)
(-2.32612 0.0460749 7.41563e-20)
(-2.34569 0.0437097 1.45305e-20)
(-2.36437 0.0414532 -4.33863e-20)
(-2.38217 0.0392727 -6.48267e-20)
(-2.39909 0.0371756 3.71103e-20)
(-2.41514 0.0351371 1.04527e-19)
(-2.4303 0.033158 -3.30486e-20)
(-2.44457 0.0312206 -1.12222e-21)
(-2.45795 0.0293184 -2.78155e-21)
(-2.47042 0.0274409 6.6682e-20)
(-2.48196 0.0255813 2.33851e-19)
(-2.49256 0.0237307 5.09005e-20)
(-2.5022 0.0218876 9.53963e-20)
(-2.51089 0.0200399 -2.06888e-19)
(-2.51861 0.0181904 -9.94889e-20)
(-2.52538 0.0163298 6.47407e-20)
(-2.53119 0.0144599 1.31702e-19)
(-2.53606 0.0125774 -7.24161e-20)
(-2.53999 0.0106836 -2.94536e-20)
(-2.54303 0.00877953 -5.07738e-20)
(-2.5452 0.00686592 7.38138e-20)
(-2.54659 0.00496847 -1.02572e-19)
(-2.54726 0.00313564 -7.71482e-20)
(-2.54723 0.0014303 -4.97478e-20)
(-2.54608 -0.000187017 1.64413e-19)
(-2.54382 -0.00176634 -1.8549e-20)
(-2.54039 -0.00332073 1.15902e-20)
(-2.5358 -0.00485431 6.03556e-20)
(-2.53003 -0.00636804 1.29933e-19)
(-2.52308 -0.00786162 -1.77301e-20)
(-2.51496 -0.00933088 -4.97633e-20)
(-2.50567 -0.0107786 3.92305e-21)
(-2.49521 -0.0121968 -9.15966e-20)
(-2.4836 -0.0135921 9.90438e-20)
(-2.47084 -0.0149533 3.69893e-20)
(-2.45694 -0.0162897 2.90271e-20)
(-2.44191 -0.0175862 7.17742e-20)
(-2.42576 -0.0188526 8.58262e-20)
(-2.40849 -0.0200786 -4.46278e-20)
(-2.39013 -0.0212777 2.88057e-20)
(-2.37066 -0.0224437 4.13863e-20)
(-2.35009 -0.0235857 4.96627e-20)
(-2.32842 -0.0246942 -5.65915e-21)
(-2.30566 -0.0257752 -2.16382e-21)
(-2.28183 -0.0268216 -3.93973e-20)
(-2.25694 -0.0278403 -3.60354e-20)
(-2.23098 -0.0288286 -3.82519e-20)
(-2.20397 -0.0297888 3.70094e-20)
(-2.1759 -0.0307238 -5.15692e-21)
(-2.14677 -0.0316296 -2.13343e-20)
(-2.11658 -0.0325143 -4.30361e-21)
(-2.08534 -0.0333662 -2.37511e-20)
(-2.05306 -0.0341985 -2.94902e-20)
(-2.01972 -0.0349958 -1.40665e-20)
(-1.98533 -0.0357753 6.92859e-21)
(-1.94991 -0.036519 4.98918e-21)
(-1.91345 -0.0372493 4.69568e-21)
(-1.87594 -0.0379619 -4.21657e-21)
(-1.83736 -0.038683 1.62593e-20)
(-1.79767 -0.0393786 -2.56426e-22)
(-1.75694 -0.0400422 1.03657e-21)
(-1.71527 -0.0406491 -4.3174e-21)
(-1.67269 -0.0412238 8.08233e-21)
(-1.62922 -0.0417782 5.12696e-21)
(-1.58487 -0.0423124 -1.19623e-20)
(-1.53966 -0.0428165 -4.26695e-21)
(-1.49361 -0.0432901 -2.46026e-20)
(-1.44674 -0.0437261 -1.65926e-20)
(-1.3991 -0.0441246 3.88186e-20)
(-1.35069 -0.044489 6.60616e-20)
(-1.30157 -0.0448129 -9.55133e-20)
(-1.25175 -0.0451004 3.0456e-20)
(-1.20128 -0.0453494 6.22256e-21)
(-1.15016 -0.0455619 -1.82365e-19)
(-1.09847 -0.0457342 4.62562e-21)
(-1.04619 -0.0458681 3.00296e-21)
(-0.993412 -0.0459598 -6.47688e-20)
(-0.940131 -0.0460151 8.4326e-20)
(-0.886424 -0.0460362 1.22158e-19)
(-0.832289 -0.0460235 1.30325e-19)
(-0.777779 -0.0459931 1.18636e-19)
(-0.722907 -0.0459396 -1.80664e-19)
(-0.667693 -0.0458762 2.35809e-20)
(-0.61215 -0.0458054 -5.19911e-20)
(-0.556281 -0.0457331 1.43671e-19)
(-0.500088 -0.0456619 -4.47715e-20)
(-0.44357 -0.0455932 1.86111e-19)
(-0.386725 -0.0455264 -1.90209e-19)
(-0.329555 -0.0454609 -3.03049e-19)
(-0.272061 -0.0453979 -4.75249e-19)
(-0.214245 -0.0453361 -2.30459e-19)
(-0.15611 -0.0452751 -1.07158e-19)
(-0.097665 -0.0452063 5.29031e-20)
(-0.0389393 -0.045109 3.32119e-20)
(0.0200076 -0.0449326 -3.91839e-19)
(0.0790794 -0.0446099 -3.63554e-19)
(0.138019 -0.0440151 4.99996e-19)
(0.196755 -0.0429338 6.08473e-19)
(0.253169 -0.040893 5.68272e-19)
(0.312581 -0.0370105 2.84976e-19)
(0.349959 -0.0250835 -6.10563e-19)
(0.00057462 0.0211051 2.87996e-19)
(0.000480846 0.0378201 2.77318e-18)
(0.00536777 0.0323461 2.86778e-18)
(0.0223871 0.00389467 -2.00723e-18)
(0.0575705 -0.0488122 3.62222e-19)
(0.105129 -0.110194 -1.62808e-19)
(0.155638 -0.161913 -6.50213e-20)
(0.202069 -0.194148 4.8481e-19)
(0.24119 -0.206004 3.73168e-19)
(0.272536 -0.201574 3.05894e-19)
(0.297036 -0.186195 1.36601e-19)
(0.316028 -0.164513 1.28859e-19)
(0.330709 -0.13981 -4.09529e-19)
(0.341938 -0.114103 -2.53786e-19)
(0.350304 -0.0885146 9.11624e-20)
(0.356196 -0.0635982 -1.97603e-19)
(0.359895 -0.039584 1.93736e-19)
(0.361598 -0.016581 2.91989e-20)
(0.361529 0.00541558 2.89117e-19)
(0.360013 0.026528 2.52125e-19)
(0.357292 0.0468761 -2.39023e-19)
(0.353548 0.0664097 -6.45483e-19)
(0.348718 0.0848106 -1.16822e-19)
(0.342444 0.10141 -7.58589e-19)
(0.334059 0.115177 1.71657e-19)
(0.322738 0.124785 2.72962e-19)
(0.307692 0.128797 -1.12323e-19)
(0.28857 0.126018 4.03066e-19)
(0.265848 0.115874 2.30215e-19)
(0.241051 0.098651 5.51641e-19)
(0.21669 0.075448 -3.04416e-19)
(0.195683 0.0477128 -2.17849e-19)
(0.180682 0.0170144 1.24765e-19)
(0.172218 -0.0158461 -1.54198e-19)
(0.169485 -0.0491491 -2.04645e-19)
(0.167232 -0.0741582 -1.18018e-20)
(0.158777 -0.0802148 -5.55773e-19)
(0.14256 -0.0671141 1.84013e-19)
(0.119313 -0.042252 -4.65861e-19)
(0.089262 -0.0122769 -1.67379e-19)
(0.0518539 0.0194272 1.67128e-19)
(0.00265778 0.0485902 -1.8046e-19)
(-0.0704394 0.078062 -3.08733e-19)
(-0.166917 0.118867 6.32493e-19)
(-0.282907 0.169282 5.26696e-19)
(-0.413755 0.223734 -2.75746e-19)
(-0.55236 0.278057 1.01898e-19)
(-0.691743 0.326862 -1.00199e-19)
(-0.826564 0.366952 -1.54393e-19)
(-0.953124 0.397792 -6.71214e-20)
(-1.06817 0.417938 -6.60034e-20)
(-1.17062 0.427013 1.16439e-19)
(-1.26002 0.425728 1.87778e-20)
(-1.33655 0.415335 8.18301e-20)
(-1.40147 0.39743 9.05005e-21)
(-1.45699 0.373808 1.01225e-20)
(-1.50549 0.346803 4.27938e-20)
(-1.54874 0.3188 6.56525e-20)
(-1.58837 0.291099 -1.10309e-20)
(-1.62535 0.264578 2.10357e-19)
(-1.66057 0.240185 1.51241e-19)
(-1.69443 0.218089 3.48979e-20)
(-1.72734 0.198287 7.79163e-20)
(-1.75956 0.180878 -1.81282e-19)
(-1.79099 0.165829 2.68301e-20)
(-1.82158 0.152719 1.04872e-19)
(-1.85136 0.141303 -1.68345e-19)
(-1.88032 0.13133 -7.63013e-20)
(-1.90845 0.122565 5.12236e-20)
(-1.93575 0.11482 4.00715e-20)
(-1.9622 0.107912 -8.50066e-20)
(-1.98782 0.101704 1.4673e-19)
(-2.0126 0.0960676 1.7156e-20)
(-2.03655 0.0909111 5.28996e-20)
(-2.05967 0.0861435 -1.73576e-19)
(-2.08196 0.0817065 1.68014e-19)
(-2.10344 0.077534 3.52976e-20)
(-2.12411 0.0735904 -7.28275e-20)
(-2.14398 0.069831 -1.3257e-19)
(-2.16305 0.0662361 -6.57911e-20)
(-2.18133 0.0627733 1.05635e-20)
(-2.19883 0.0594307 2.84318e-20)
(-2.21553 0.0561861 -1.34418e-20)
(-2.23144 0.0530323 -1.00465e-19)
(-2.24655 0.0499528 -2.7616e-20)
(-2.26085 0.0469402 -3.05354e-20)
(-2.27433 0.0439803 1.83076e-20)
(-2.28699 0.0410643 -6.34855e-20)
(-2.29881 0.0381818 -9.12095e-20)
(-2.30977 0.035324 -1.12439e-19)
(-2.31987 0.032482 3.6336e-20)
(-2.32909 0.0296497 -1.33012e-19)
(-2.33743 0.0268228 1.2952e-19)
(-2.34488 0.0239996 1.12529e-20)
(-2.35145 0.0211783 -3.065e-20)
(-2.35712 0.0183621 -5.71596e-20)
(-2.36191 0.0155544 1.97752e-20)
(-2.36579 0.0127665 9.54514e-20)
(-2.36877 0.0100094 7.87276e-20)
(-2.37085 0.00730068 3.49328e-20)
(-2.37199 0.00465103 4.20038e-20)
(-2.37217 0.00205552 2.0975e-20)
(-2.3713 -0.000518333 1.94147e-20)
(-2.36935 -0.0030812 -2.68953e-19)
(-2.36629 -0.00561778 5.2911e-20)
(-2.36211 -0.00812693 4.79134e-20)
(-2.35679 -0.010605 -9.31641e-20)
(-2.35034 -0.0130505 7.91793e-20)
(-2.34274 -0.015458 -2.63322e-20)
(-2.33401 -0.0178267 1.14094e-19)
(-2.32415 -0.0201513 8.29165e-20)
(-2.31316 -0.0224312 5.82685e-20)
(-2.30105 -0.0246624 -3.83326e-20)
(-2.28782 -0.0268444 4.61935e-20)
(-2.2735 -0.0289741 2.96555e-20)
(-2.25808 -0.0310491 -3.56511e-20)
(-2.24157 -0.0330681 -5.32982e-20)
(-2.22398 -0.0350324 1.66035e-19)
(-2.20532 -0.0369446 2.46531e-20)
(-2.18559 -0.0388059 -5.6435e-20)
(-2.16479 -0.0406202 -1.41242e-19)
(-2.14292 -0.0423844 -1.78164e-20)
(-2.12 -0.0441019 -1.18423e-21)
(-2.09603 -0.0457706 -4.88702e-20)
(-2.07102 -0.0473949 5.09608e-21)
(-2.04497 -0.0489731 3.82285e-20)
(-2.01788 -0.0505096 -1.04171e-19)
(-1.98974 -0.0520031 3.4319e-20)
(-1.96056 -0.0534564 1.33912e-20)
(-1.93033 -0.0548691 5.09644e-20)
(-1.89906 -0.0562406 -1.3664e-20)
(-1.86675 -0.0575692 2.80621e-20)
(-1.83339 -0.0588506 6.67034e-20)
(-1.79898 -0.0600864 6.36571e-21)
(-1.76354 -0.0612696 -2.23651e-20)
(-1.72706 -0.0623972 5.16121e-21)
(-1.68954 -0.0634629 3.42452e-21)
(-1.65097 -0.0644786 -5.17323e-21)
(-1.61135 -0.0654536 -3.88202e-21)
(-1.57073 -0.0664055 -5.14672e-22)
(-1.52917 -0.067321 1.45688e-21)
(-1.4867 -0.0681956 -2.14699e-20)
(-1.44335 -0.0690319 -3.49003e-21)
(-1.39914 -0.0698253 -4.11413e-21)
(-1.35407 -0.0705656 -8.93232e-21)
(-1.30818 -0.0712497 4.47161e-20)
(-1.26148 -0.071871 -1.3521e-20)