/*--------------------------------*- C++ -*----------------------------------*\
  =========                 |
  \\      /  F ield         | OpenFOAM: The Open Source CFD Toolbox
   \\    /   O peration     | Website:  https://openfoam.org
    \\  /    A nd           | Version:  13
     \\/     M anipulation  |
\*---------------------------------------------------------------------------*/
FoamFile
{
    format      ascii;
    class       volScalarField;
    location    "700";
    object      k;
}
// * * * * * * * * * * * * * * * * * * * * * * * * * * * * * * * * * * * * * //

dimensions      [0 2 -2 0 0 0 0];

internalField   nonuniform List<scalar> 
12225
(
0.670076
1.368
1.73955
2.0119
1.84603
1.84609
1.8837
1.39025
2.19224
2.9491
3.07939
1.98269
2.14425
2.23942
2.04485
2.38443
2.05016
1.57997
0.377892
0.414078
0.454903
0.535313
0.610234
0.615165
0.632465
0.614634
0.583776
0.575392
0.629924
0.619946
0.626543
0.656068
0.674371
0.710929
0.745755
0.780825
0.372154
0.35887
0.308203
0.237416
0.174726
0.173701
0.17212
0.168447
0.147457
0.134921
0.136574
0.142417
0.14928
0.156635
0.163168
0.171913
0.176845
0.188822
0.374854
0.355865
0.306787
0.235104
0.187917
0.144093
0.124603
0.105723
0.0995106
0.0926291
0.0924291
0.0995805
0.0997799
0.103261
0.0966123
0.0821507
0.0677393
0.0515175
0.376007
0.352841
0.291311
0.249293
0.207184
0.174112
0.163431
0.156918
0.153197
0.143018
0.143643
0.154119
0.154104
0.160484
0.15579
0.136591
0.113818
0.0863663
0.375839
0.358668
0.328356
0.298054
0.278561
0.264153
0.253088
0.246025
0.241849
0.241032
0.234229
0.243998
0.240261
0.243222
0.235306
0.219249
0.199513
0.174933
0.375205
0.365733
0.350299
0.335509
0.327765
0.321556
0.318564
0.310069
0.30857
0.300639
0.302942
0.298259
0.299312
0.295913
0.289194
0.2763
0.266952
0.251559
0.373999
0.370462
0.362417
0.355075
0.350654
0.347424
0.345241
0.34262
0.340515
0.336984
0.335245
0.331772
0.328761
0.323237
0.318257
0.310068
0.304477
0.296175
0.373716
0.371429
0.367419
0.363234
0.359976
0.357275
0.355251
0.353342
0.351573
0.349313
0.347255
0.344314
0.341549
0.337555
0.334109
0.329261
0.325684
0.320822
0.373863
0.371521
0.368936
0.366134
0.363617
0.361338
0.359445
0.357662
0.356001
0.354122
0.352337
0.350043
0.347877
0.345119
0.342692
0.33967
0.337285
0.334246
0.373848
0.37155
0.369345
0.367089
0.364963
0.362945
0.361146
0.359411
0.35781
0.356116
0.354512
0.352694
0.350953
0.348972
0.347166
0.345118
0.343391
0.341349
0.373836
0.371554
0.369415
0.36732
0.36534
0.363434
0.361682
0.359992
0.358418
0.35683
0.355319
0.353743
0.352234
0.350638
0.349154
0.34757
0.346179
0.344634
0.373833
0.371554
0.369416
0.367366
0.365431
0.363574
0.361835
0.360169
0.358602
0.357071
0.355619
0.354171
0.352794
0.351407
0.350105
0.348781
0.347571
0.346314
0.373829
0.371554
0.369408
0.367366
0.365436
0.363594
0.361855
0.360195
0.358626
0.357119
0.355688
0.354303
0.352986
0.351704
0.35049
0.349302
0.348186
0.347085
0.373827
0.371553
0.3694
0.367358
0.365423
0.363584
0.361839
0.360179
0.358604
0.357101
0.355673
0.354307
0.353007
0.351762
0.350576
0.349439
0.348356
0.347317
0.373826
0.371551
0.369396
0.367351
0.365412
0.36357
0.361822
0.360159
0.358579
0.357075
0.355643
0.354279
0.352979
0.35174
0.350557
0.34943
0.348354
0.347327
0.373825
0.37155
0.369392
0.367346
0.365404
0.36356
0.361808
0.360143
0.358559
0.357052
0.355617
0.35425
0.352948
0.351707
0.350523
0.349395
0.348317
0.347289
0.373825
0.371549
0.369391
0.367343
0.365399
0.363553
0.3618
0.360132
0.358546
0.357037
0.3556
0.354231
0.352927
0.351683
0.350498
0.349367
0.348288
0.347258
0.373825
0.371549
0.369391
0.367342
0.365398
0.363552
0.361797
0.360129
0.358542
0.357031
0.355593
0.354223
0.352918
0.351673
0.350487
0.349355
0.348274
0.347243
0.373825
0.37155
0.369393
0.367345
0.365402
0.363556
0.361803
0.360134
0.358549
0.357039
0.355602
0.354232
0.352928
0.351683
0.350496
0.349363
0.34828
0.347245
0.373825
0.371553
0.369395
0.367351
0.365408
0.363567
0.361813
0.360149
0.358563
0.357057
0.35562
0.354255
0.352948
0.351703
0.350504
0.349356
0.348246
0.347181
0.373826
0.371555
0.369401
0.367361
0.36542
0.363583
0.36183
0.360173
0.358587
0.357089
0.355655
0.354296
0.352973
0.351693
0.350421
0.349164
0.347909
0.346666
0.373828
0.37156
0.369411
0.367375
0.365437
0.36361
0.361858
0.360214
0.358629
0.357151
0.355719
0.35435
0.35294
0.351473
0.349875
0.348154
0.346311
0.344374
0.373831
0.371568
0.369431
0.36739
0.365467
0.363651
0.361913
0.360293
0.358718
0.357267
0.355812
0.354336
0.352612
0.350546
0.347988
0.344927
0.34142
0.337574
0.373837
0.3716
0.369449
0.367405
0.365529
0.363743
0.362075
0.360476
0.358929
0.35745
0.355911
0.354145
0.351768
0.348428
0.343852
0.337876
0.330742
0.32268
0.373898
0.371727
0.369502
0.367546
0.365816
0.364152
0.362618
0.36101
0.359497
0.357775
0.35612
0.353788
0.350504
0.345216
0.337418
0.326916
0.313364
0.298575
0.374316
0.372407
0.370289
0.368789
0.367483
0.366088
0.364691
0.363044
0.361416
0.359216
0.357069
0.354125
0.349747
0.342519
0.331296
0.316486
0.296851
0.276505
0.377047
0.377141
0.377785
0.377576
0.377628
0.376245
0.37577
0.374286
0.373246
0.370747
0.367952
0.365131
0.360388
0.353651
0.342908
0.325696
0.310554
0.289188
0.402618
0.427247
0.435437
0.454859
0.475591
0.494096
0.509159
0.521211
0.532495
0.541898
0.553088
0.564424
0.577674
0.590118
0.604553
0.616078
0.627421
0.637906
0.980644
1.26996
1.45924
1.55676
1.60057
1.59557
1.58071
1.54944
1.51272
1.47512
1.43883
1.40509
1.37427
1.34663
1.32154
1.29962
1.27944
1.26182
1.58128e-08
3.90551e-07
1.99018e-06
7.81009e-06
2.60073e-05
7.83486e-05
0.000208358
0.00042065
0.000690108
0.000980934
0.00124606
0.00145852
0.00160339
0.00167291
0.00166303
0.00160309
0.00149379
0.00131183
0.00110678
0.000941208
0.00079017
0.000646639
0.000507636
0.00037934
0.000260452
0.000162724
9.24389e-05
4.88231e-05
2.52108e-05
1.34497e-05
7.80487e-06
5.09579e-06
4.01981e-06
5.38168e-06
8.92394e-06
3.57494e-05
8.2898e-05
0.000264844
0.000561693
0.000834327
0.000895446
0.000833566
0.000687382
0.000640742
0.000689753
0.00092207
0.00113489
0.00194516
0.00368862
0.00914192
0.0281216
0.0642331
0.0961761
0.110768
0.116019
0.12544
0.116368
0.146983
0.156166
0.177793
0.168144
0.187306
0.163075
0.160766
0.173153
0.181622
0.189639
0.197891
0.205947
0.213583
0.221377
0.228809
0.236284
0.243562
0.2508
0.257915
0.264969
0.271921
0.278812
0.285605
0.292343
0.298979
0.305565
0.312043
0.318478
0.324799
0.331077
0.337237
0.343338
0.349318
0.355203
0.360988
0.366674
0.372247
0.377701
0.383023
0.388206
0.393238
0.398117
0.402845
0.407451
0.411995
0.41639
0.420674
0.424841
0.428887
0.432811
0.436601
0.440262
0.44378
0.44716
0.450391
0.453474
0.456403
0.459174
0.461785
0.46423
0.46651
0.468618
0.470562
0.472328
0.473919
0.475319
0.476538
0.477559
0.478402
0.47904
0.479494
0.479726
0.479719
0.479829
0.479594
0.479221
0.478617
0.477847
0.476987
0.475995
0.474834
0.473339
0.471701
0.469873
0.467896
0.465761
0.463484
0.461063
0.458513
0.455838
0.453051
0.450143
0.447146
0.444033
0.440852
0.437561
0.434218
0.43078
0.4273
0.423752
0.420173
0.416546
0.412897
0.409242
0.405601
0.40198
0.398389
0.394837
0.391326
0.387864
0.384456
0.381107
0.377826
0.374611
0.37147
0.368387
0.365355
0.36231
0.359182
0.355807
0.351915
0.346931
0.331595
7.72393e-08
2.18162e-06
1.45914e-05
6.18408e-05
0.000227458
0.000650313
0.00153676
0.002821
0.00433063
0.00590884
0.00737452
0.00860314
0.00953979
0.0101338
0.0104952
0.0104787
0.0103644
0.0100472
0.00955763
0.00886509
0.00795486
0.00688554
0.00566643
0.00444577
0.00316713
0.00215542
0.00140464
0.000888708
0.000551005
0.000339619
0.000215388
0.000146844
0.000110874
0.000108647
0.000108724
0.000447173
0.000952738
0.00292729
0.00577267
0.00832925
0.00977186
0.00990355
0.0100835
0.0108893
0.0137181
0.0185546
0.0249625
0.0377345
0.0604551
0.0859586
0.111372
0.133973
0.151116
0.16411
0.176597
0.193022
0.208883
0.22422
0.240833
0.25926
0.276683
0.295303
0.312227
0.331632
0.350825
0.369379
0.387859
0.405988
0.423969
0.441639
0.459233
0.476626
0.493922
0.511099
0.528182
0.545179
0.562096
0.578935
0.595699
0.612383
0.628996
0.645521
0.66197
0.678321
0.694594
0.710759
0.726836
0.74279
0.758629
0.77431
0.789842
0.805232
0.820471
0.835546
0.850437
0.86513
0.879597
0.893818
0.907756
0.921382
0.934649
0.947528
0.960209
0.97269
0.984939
0.996969
1.00875
1.02028
1.03155
1.04254
1.05324
1.06365
1.07374
1.08351
1.09295
1.10205
1.1108
1.11917
1.12719
1.13482
1.14206
1.1489
1.15531
1.16129
1.16684
1.17194
1.1766
1.1808
1.18454
1.18783
1.19068
1.19305
1.19496
1.1964
1.19726
1.1978
1.19809
1.1982
1.19784
1.19716
1.196
1.1944
1.19236
1.18989
1.18701
1.18372
1.18005
1.176
1.17159
1.16682
1.16173
1.15628
1.15056
1.14451
1.1382
1.13161
1.12479
1.11774
1.11049
1.10307
1.09553
1.08789
1.08017
1.07241
1.06461
1.05679
1.04897
1.04115
1.03336
1.02561
1.01791
1.01027
1.00268
0.995119
0.987514
0.979744
0.971572
0.962694
0.951229
0.925326
1.77759e-07
5.26081e-06
3.96223e-05
0.000179363
0.000711986
0.00172302
0.00360321
0.00582919
0.00810699
0.0102115
0.0119959
0.0133965
0.0144003
0.0150242
0.0153687
0.0153666
0.015248
0.0149492
0.014481
0.0138877
0.0131689
0.0123176
0.0113203
0.0101528
0.00888045
0.00738772
0.00579063
0.00429689
0.00298523
0.0019904
0.0013538
0.000970989
0.000728964
0.000679697
0.000789579
0.00200082
0.00521376
0.0119818
0.0188871
0.0245478
0.0284591
0.0312313
0.0359966
0.0467489
0.0651227
0.0835603
0.102454
0.123773
0.144148
0.164136
0.184394
0.204424
0.22519
0.247777
0.273375
0.299655
0.325669
0.354857
0.383171
0.411064
0.438662
0.46581
0.49229
0.518514
0.544034
0.569029
0.593547
0.61765
0.641414
0.664893
0.688146
0.711197
0.734087
0.756834
0.77946
0.801974
0.824384
0.846695
0.868905
0.891015
0.913023
0.934921
0.956707
0.978371
0.999914
1.02132
1.04259
1.06371
1.08466
1.10542
1.12597
1.14632
1.16648
1.18643
1.20614
1.22562
1.24484
1.2638
1.28248
1.30089
1.31902
1.33689
1.3545
1.37181
1.38881
1.40549
1.42183
1.43782
1.45342
1.46864
1.48346
1.49786
1.51182
1.52533
1.53839
1.55096
1.56305
1.57463
1.5857
1.59625
1.60626
1.61572
1.6246
1.63289
1.64059
1.6477
1.6542
1.66008
1.66535
1.67
1.67403
1.67743
1.68021
1.68235
1.68384
1.6847
1.68507
1.68497
1.68417
1.68277
1.68075
1.67813
1.6749
1.67108
1.66669
1.66174
1.65625
1.65022
1.64371
1.63669
1.62923
1.6213
1.61297
1.60421
1.5951
1.58561
1.5758
1.56569
1.55533
1.54475
1.53399
1.52309
1.51208
1.50099
1.48985
1.47869
1.46751
1.45635
1.44521
1.43413
1.42312
1.4122
1.40138
1.39065
1.37996
1.36923
1.35825
1.34676
1.33285
1.30877
6.68028e-07
2.00817e-05
0.000157086
0.00063288
0.00197468
0.00463954
0.00801792
0.0113806
0.0143607
0.016766
0.0185399
0.01972
0.0203811
0.0206132
0.0205402
0.0202882
0.0198159
0.0192252
0.0185464
0.0178006
0.0169906
0.0161145
0.0151615
0.014106
0.012937
0.0116195
0.0101554
0.00858745
0.00706042
0.00556487
0.00431456
0.00330566
0.00264051
0.00288161
0.00471338
0.0111248
0.0239566
0.0366754
0.0472979
0.0566209
0.0668418
0.0798369
0.0956535
0.11221
0.127936
0.144203
0.161962
0.182559
0.203706
0.227578
0.252898
0.280272
0.309448
0.340367
0.372501
0.404996
0.437807
0.47089
0.503573
0.535794
0.567536
0.598666
0.629196
0.65922
0.68866
0.717649
0.746217
0.77445
0.802402
0.830125
0.857661
0.885043
0.912298
0.939447
0.9665
0.993466
1.02035
1.04714
1.07385
1.10046
1.12697
1.15336
1.17964
1.20578
1.23179
1.25764
1.28334
1.30886
1.33419
1.35929
1.38416
1.4088
1.43321
1.45737
1.48128
1.50491
1.52826
1.55131
1.57407
1.59652
1.61866
1.64046
1.66192
1.683
1.7037
1.724
1.74386
1.76327
1.78221
1.80067
1.81862
1.83605
1.85293
1.86926
1.88501
1.90017
1.91472
1.92865
1.94194
1.95459
1.96656
1.97786
1.98845
1.99832
2.00747
2.01588
2.02356
2.03049
2.03667
2.04208
2.04674
2.05063
2.05376
2.05612
2.05765
2.05839
2.05857
2.05799
2.05661
2.05447
2.0516
2.04799
2.04366
2.03861
2.03288
2.02647
2.01941
2.01172
2.00342
1.99454
1.98511
1.97514
1.96468
1.95374
1.94235
1.93053
1.91832
1.90576
1.8929
1.87978
1.86643
1.85291
1.83926
1.82551
1.8117
1.79785
1.78398
1.77012
1.75629
1.74253
1.72886
1.71532
1.70191
1.68865
1.67553
1.6625
1.64941
1.63606
1.62082
1.59853
2.24655e-06
6.73957e-05
0.000503309
0.00197415
0.00545113
0.0104886
0.0153188
0.0192904
0.0221893
0.0240691
0.025103
0.0254984
0.0254293
0.0251191
0.0245233
0.0237974
0.0229943
0.022153
0.021296
0.0204347
0.0195672
0.0186866
0.0177798
0.0168251
0.0158005
0.0146692
0.013402
0.0120119
0.010589
0.0092028
0.0077203
0.00678184
0.00754161
0.0120898
0.0245929
0.043206
0.0615156
0.0774859
0.0911057
0.103375
0.11539
0.127777
0.140838
0.154661
0.170714
0.189969
0.211823
0.236558
0.263404
0.29262
0.323405
0.355771
0.389266
0.423622
0.458461
0.493521
0.528729
0.56388
0.598786
0.633375
0.667603
0.701405
0.734784
0.767776
0.800382
0.83267
0.864675
0.896452
0.928044
0.959493
0.99083
1.02208
1.05327
1.08441
1.11549
1.14654
1.17753
1.20847
1.23934
1.27014
1.30084
1.33144
1.36192
1.39227
1.42247
1.45251
1.48237
1.51204
1.5415
1.57072
1.59968
1.62838
1.65682
1.68499
1.71285
1.74041
1.76765
1.79455
1.8211
1.84729
1.87309
1.89849
1.92347
1.948
1.97207
1.99565
2.01872
2.04125
2.06322
2.08461
2.1054
2.12556
2.14508
2.16394
2.18211
2.19959
2.21634
2.23235
2.24761
2.26211
2.27581
2.28871
2.30078
2.31202
2.3224
2.33193
2.34059
2.34838
2.35529
2.36131
2.36644
2.37068
2.37402
2.37648
2.37793
2.37852
2.3784
2.37735
2.37539
2.37256
2.36888
2.36435
2.35899
2.35281
2.34584
2.3381
2.32961
2.32039
2.31049
2.29991
2.2887
2.27688
2.2645
2.25157
2.23813
2.2242
2.20984
2.19507
2.17995
2.16453
2.14886
2.13298
2.11693
2.10077
2.08453
2.06823
2.05191
2.0356
2.01932
2.00311
1.98702
1.97106
1.95528
1.93971
1.92436
1.90921
1.89418
1.87912
1.86265
1.84098
7.11503e-06
0.000209411
0.00150676
0.0053589
0.0126195
0.0192811
0.0241843
0.0273017
0.0290059
0.0297259
0.0297498
0.0294432
0.0287589
0.0278713
0.0268807
0.0258501
0.0248216
0.0238231
0.0228676
0.0219577
0.0210854
0.0202391
0.0193998
0.0185402
0.017637
0.016639
0.0154917
0.0141484
0.0126257
0.011506
0.011855
0.0149395
0.0243651
0.0429289
0.0658296
0.0874504
0.105316
0.118762
0.129059
0.13823
0.147975
0.159149
0.1735
0.190949
0.21172
0.235816
0.262615
0.291732
0.322576
0.354887
0.388287
0.422634
0.457646
0.493169
0.529041
0.565161
0.601472
0.637859
0.674231
0.71052
0.746663
0.782628
0.818395
0.853971
0.889362
0.924597
0.959702
0.994713
1.02966
1.06457
1.09947
1.13437
1.16929
1.20424
1.2392
1.27417
1.30915
1.34411
1.37904
1.41392
1.44872
1.48344
1.51804
1.55251
1.58683
1.62099
1.65495
1.68872
1.72225
1.75552
1.78851
1.82121
1.85362
1.88572
1.91748
1.9489
1.97995
2.0106
2.04086
2.07068
2.10006
2.12897
2.15738
2.18527
2.21262
2.2394
2.26559
2.29116
2.31608
2.34033
2.36388
2.38671
2.40879
2.43011
2.45064
2.47035
2.48924
2.50727
2.52444
2.54071
2.55608
2.57052
2.58402
2.59656
2.60812
2.61871
2.6283
2.63689
2.64448
2.65105
2.65662
2.66116
2.66468
2.66718
2.66854
2.66898
2.66852
2.66701
2.66449
2.66099
2.65652
2.6511
2.64475
2.63748
2.62931
2.62028
2.61042
2.59974
2.58828
2.57608
2.56316
2.54957
2.53534
2.5205
2.50509
2.48914
2.4727
2.45581
2.43853
2.4209
2.40299
2.38483
2.36648
2.34799
2.3294
2.31074
2.29205
2.27335
2.25469
2.23611
2.21764
2.19933
2.18124
2.16339
2.14583
2.12858
2.11159
2.09474
2.07687
2.05489
2.24414e-05
0.000623443
0.00410533
0.0129719
0.0220857
0.0281331
0.0315518
0.0332328
0.0338016
0.0336676
0.0330847
0.0320973
0.0309131
0.0296321
0.0283303
0.0270643
0.0258692
0.0247646
0.0237535
0.0228293
0.0219768
0.0211754
0.0203959
0.0195958
0.0187486
0.0179429
0.0172418
0.0168671
0.0173428
0.0200661
0.0275101
0.0424277
0.0640513
0.0872656
0.108605
0.12537
0.137041
0.145302
0.152656
0.161139
0.172865
0.188008
0.20678
0.229048
0.254444
0.282438
0.312356
0.343736
0.376202
0.409556
0.44364
0.478376
0.513671
0.549474
0.585724
0.622378
0.659388
0.696686
0.734197
0.771865
0.809633
0.847463
0.885328
0.923217
0.961124
0.99906
1.03704
1.07508
1.11319
1.15141
1.18974
1.22818
1.26675
1.30543
1.34421
1.38308
1.42202
1.46099
1.49998
1.53895
1.57787
1.61671
1.65545
1.69407
1.73253
1.77082
1.80892
1.84679
1.88442
1.92176
1.9588
1.99552
2.03191
2.06796
2.10364
2.13892
2.17378
2.2082
2.24216
2.27563
2.30859
2.34101
2.37286
2.40413
2.43477
2.46477
2.49409
2.52271
2.55059
2.57771
2.60403
2.62954
2.65419
2.67798
2.70087
2.72283
2.74385
2.76391
2.78297
2.80103
2.81806
2.83403
2.84895
2.86277
2.87551
2.88713
2.89764
2.90702
2.91526
2.92237
2.92835
2.93317
2.93686
2.93938
2.94064
2.94092
2.9401
2.93813
2.93505
2.93087
2.92562
2.91931
2.91196
2.9036
2.89425
2.88394
2.8727
2.86057
2.84758
2.83375
2.81914
2.80378
2.78772
2.77098
2.75362
2.73566
2.71716
2.69816
2.67872
2.65891
2.63876
2.61835
2.59771
2.57691
2.55598
2.53497
2.51391
2.49283
2.47179
2.45082
2.42997
2.4093
2.38886
2.36872
2.34892
2.32949
2.31043
2.29166
2.27212
2.24918
6.70645e-05
0.0017198
0.00978444
0.0225763
0.0307309
0.0351227
0.03724
0.0379449
0.0377553
0.0369706
0.0357031
0.0341916
0.0325659
0.0309299
0.0293585
0.0279034
0.0265908
0.0254288
0.0244096
0.0235175
0.0227314
0.0220273
0.0213733
0.0207209
0.0201704
0.0199349
0.0206334
0.0234179
0.0300647
0.0430646
0.0617212
0.0828722
0.104004
0.122838
0.137467
0.147537
0.154706
0.161649
0.170788
0.183183
0.199311
0.219064
0.242165
0.268129
0.296365
0.326219
0.357208
0.389071
0.421666
0.454932
0.488836
0.523369
0.558524
0.5943
0.630683
0.66765
0.705158
0.743164
0.781611
0.820449
0.859625
0.899103
0.938849
0.978841
1.01907
1.05953
1.10022
1.14115
1.18232
1.22375
1.26544
1.30739
1.34957
1.39199
1.43462
1.47741
1.52035
1.5634
1.6065
1.64962
1.69272
1.73576
1.77871
1.82153
1.8642
1.90669
1.94898
1.99103
2.03281
2.07427
2.11541
2.15619
2.19662
2.23666
2.27628
2.31546
2.35418
2.3924
2.4301
2.46725
2.50383
2.53981
2.57515
2.60982
2.64379
2.67704
2.70953
2.74123
2.77211
2.80212
2.83125
2.85945
2.88671
2.91298
2.93824
2.96247
2.98564
3.00772
3.0287
3.04854
3.06722
3.08473
3.10105
3.11615
3.13003
3.14268
3.15408
3.16423
3.17312
3.18074
3.18709
3.19218
3.196
3.19851
3.19966
3.19972
3.19853
3.19608
3.1924
3.18753
3.18147
3.17424
3.16588
3.15641
3.14585
3.13425
3.12162
3.10802
3.09347
3.07801
3.06169
3.04455
3.02664
3.00799
2.98866
2.96867
2.94809
2.92697
2.90537
2.88335
2.86097
2.83828
2.81534
2.79221
2.76893
2.74555
2.72209
2.69861
2.67515
2.65177
2.62851
2.60544
2.58262
2.56012
2.538
2.51632
2.49507
2.47421
2.45278
2.42838
0.000175777
0.00412488
0.0185969
0.0312624
0.0379236
0.0411102
0.0423059
0.0422463
0.0414052
0.0399318
0.0381124
0.0361218
0.0341003
0.0321596
0.0303769
0.0288009
0.0274546
0.0263431
0.0254586
0.0247902
0.0243379
0.0241532
0.0243186
0.0250587
0.0266766
0.0297305
0.0353975
0.0456816
0.0602937
0.0776237
0.0962328
0.114279
0.130117
0.142629
0.151978
0.15953
0.16744
0.177524
0.19089
0.207807
0.228143
0.251489
0.27733
0.305086
0.334216
0.364305
0.39512
0.426576
0.458657
0.491384
0.524782
0.558893
0.593745
0.629362
0.665741
0.702879
0.740747
0.779319
0.818549
0.858398
0.898821
0.939783
0.98125
1.0232
1.06561
1.10847
1.15178
1.19553
1.23971
1.28433
1.32938
1.37483
1.42068
1.46689
1.51342
1.56022
1.60725
1.65446
1.70177
1.74914
1.79652
1.84385
1.8911
1.93821
1.98517
2.03194
2.07848
2.12476
2.17075
2.2164
2.26168
2.30657
2.35107
2.39513
2.43874
2.48186
2.52445
2.5665
2.60797
2.64884
2.68906
2.72861
2.76745
2.80554
2.84287
2.87938
2.91505
2.94984
2.98371
3.01663
3.04856
3.07946
3.10931
3.13806
3.1657
3.19218
3.21748
3.24158
3.26444
3.28604
3.30635
3.32536
3.34305
3.3594
3.37439
3.38802
3.40027
3.41113
3.42061
3.42869
3.43537
3.44066
3.44455
3.44701
3.44804
3.4478
3.44617
3.4432
3.43888
3.43325
3.42634
3.41816
3.40874
3.39811
3.3863
3.37336
3.35931
3.3442
3.32806
3.31095
3.2929
3.27395
3.25416
3.23358
3.21225
3.19021
3.16753
3.14426
3.12048
3.09624
3.07161
3.04664
3.02139
2.99591
2.97026
2.94448
2.91861
2.8927
2.8668
2.84097
2.81526
2.78975
2.76451
2.7396
2.7151
2.69107
2.66753
2.64445
2.62093
2.59469
0.000395949
0.00847001
0.0276975
0.0391138
0.0445048
0.0467936
0.0472621
0.0465702
0.0450572
0.0430233
0.0406993
0.0382838
0.0359375
0.0337852
0.0319097
0.0303593
0.0291601
0.0283033
0.0278062
0.0276464
0.0278725
0.0286867
0.0304672
0.0339039
0.0397262
0.0485097
0.0602957
0.0740639
0.0892482
0.104869
0.119789
0.132988
0.144057
0.153274
0.161699
0.170856
0.182159
0.196436
0.213921
0.234396
0.25747
0.282653
0.309467
0.33747
0.366324
0.395829
0.42591
0.456581
0.487887
0.519894
0.552663
0.586257
0.620721
0.656088
0.692374
0.729588
0.76772
0.806755
0.846663
0.887417
0.92898
0.971326
1.01442
1.05825
1.10278
1.148
1.1939
1.24046
1.28768
1.33553
1.38399
1.43304
1.48264
1.53274
1.58329
1.63422
1.68546
1.73694
1.78859
1.84032
1.89208
1.9438
1.99543
2.04692
2.09824
2.14934
2.2002
2.25076
2.301
2.35086
2.40031
2.44933
2.4979
2.546
2.59359
2.64063
2.6871
2.73296
2.77819
2.82274
2.86658
2.90968
2.95199
2.99348
3.03412
3.07385
3.11266
3.1505
3.18733
3.22311
3.25779
3.29134
3.32373
3.35491
3.38486
3.41353
3.44091
3.46695
3.49163
3.51492
3.53679
3.55723
3.5762
3.59371
3.60973
3.62425
3.63727
3.64876
3.65874
3.66719
3.67411
3.67951
3.6834
3.68572
3.68654
3.68591
3.68379
3.6802
3.67517
3.66872
3.66088
3.65168
3.64114
3.62929
3.61618
3.60185
3.58633
3.56967
3.5519
3.53309
3.51327
3.49249
3.4708
3.44825
3.42489
3.40077
3.37597
3.35054
3.32456
3.29809
3.2712
3.24394
3.21636
3.18853
3.16049
3.1323
3.104
3.07563
3.04727
3.01897
2.9908
2.96282
2.93511
2.90774
2.8808
2.85435
2.82843
2.80302
2.77728
2.74915
0.000768232
0.0149469
0.0359372
0.046224
0.0508236
0.0525036
0.0524289
0.0511758
0.049137
0.0466263
0.0439057
0.0412036
0.0387045
0.0365495
0.0348348
0.033605
0.0329538
0.0328216
0.0332723
0.0344726
0.036699
0.0402666
0.0454886
0.0525648
0.0615577
0.0723027
0.0844118
0.0972363
0.110133
0.122445
0.133732
0.143881
0.153225
0.162569
0.172987
0.185415
0.200429
0.218149
0.23839
0.260791
0.28496
0.310512
0.337114
0.364501
0.392503
0.421054
0.450164
0.479895
0.510325
0.541547
0.573637
0.606667
0.640694
0.675766
0.711912
0.749157
0.787506
0.826959
0.867502
0.909123
0.951799
0.995509
1.04023
1.08594
1.13263
1.18026
1.22882
1.2783
1.32865
1.37986
1.43188
1.48467
1.53818
1.59233
1.64704
1.70224
1.75783
1.81372
1.86982
1.92604
1.98228
2.03847
2.09456
2.15048
2.2062
2.26168
2.31687
2.37173
2.42621
2.48026
2.53384
2.58694
2.63954
2.69162
2.74313
2.79403
2.84429
2.89388
2.94277
2.99091
3.03827
3.08481
3.13049
3.17527
3.2191
3.26195
3.30378
3.34454
3.3842
3.42271
3.46002
3.4961
3.53089
3.56437
3.59649
3.62722
3.65653
3.68439
3.71075
3.73558
3.75887
3.78059
3.80072
3.81924
3.83614
3.85141
3.86505
3.87703
3.88737
3.89604
3.90307
3.90845
3.9122
3.91428
3.91475
3.91363
3.91089
3.90658
3.90074
3.89337
3.88451
3.8742
3.86245
3.84932
3.83484
3.81905
3.80201
3.78374
3.76431
3.74376
3.72214
3.6995
3.67589
3.65135
3.62594
3.59974
3.57281
3.54521
3.51704
3.48835
3.4592
3.42966
3.39977
3.3696
3.33919
3.30859
3.27785
3.24704
3.21621
3.18545
3.1548
3.12435
3.09417
3.06433
3.03491
3.006
2.97762
2.94982
2.92178
2.89166
0.00126276
0.0220419
0.0435347
0.0532528
0.0573621
0.0585818
0.058081
0.0563908
0.0539508
0.0511278
0.0482268
0.0455074
0.0431757
0.0413986
0.0403494
0.0400277
0.0404104
0.0415889
0.0437008
0.0468821
0.0512743
0.0569745
0.0640095
0.0723007
0.0816969
0.0919082
0.102561
0.113257
0.123705
0.133748
0.143443
0.153099
0.163323
0.17479
0.188083
0.203522
0.221168
0.240849
0.262294
0.285193
0.309266
0.334266
0.360003
0.386346
0.413237
0.44068
0.468732
0.49748
0.52702
0.557452
0.588864
0.621337
0.654941
0.689736
0.725766
0.76307
0.801669
0.841583
0.882814
0.925369
0.969239
1.01442
1.06088
1.10862
1.15761
1.20782
1.25924
1.31183
1.36554
1.42033
1.47615
1.53293
1.59058
1.64901
1.7081
1.76775
1.82785
1.8883
1.94896
2.00974
2.07052
2.13123
2.1918
2.25217
2.31229
2.37211
2.43158
2.49067
2.54931
2.60744
2.66504
2.72209
2.77858
2.83447
2.88974
2.94433
2.9982
3.05133
3.10367
3.1552
3.20588
3.25565
3.30448
3.35232
3.39912
3.44485
3.48946
3.53292
3.57517
3.61617
3.65588
3.69423
3.7312
3.76673
3.8008
3.83335
3.86437
3.89379
3.9216
3.94775
3.97223
3.995
4.01605
4.03536
4.05292
4.06872
4.08276
4.09502
4.1055
4.11421
4.12115
4.12632
4.12974
4.1314
4.13135
4.12959
4.12608
4.12092
4.11412
4.10571
4.09573
4.0842
4.07116
4.05665
4.04073
4.02342
4.00478
3.98487
3.96373
3.94142
3.91798
3.89347
3.86793
3.8414
3.81395
3.78567
3.75663
3.7269
3.69656
3.66568
3.63432
3.60254
3.57038
3.53791
3.50516
3.47218
3.43905
3.40582
3.37258
3.33938
3.3063
3.27341
3.24077
3.20847
3.17658
3.14519
3.11434
3.08411
3.05373
3.02156
0.00188361
0.0285238
0.0506618
0.0603137
0.0641971
0.0651506
0.0643299
0.062313
0.0596223
0.0567104
0.0539327
0.0515649
0.0497929
0.048909
0.0487678
0.0495161
0.0511179
0.0536457
0.0571336
0.0616079
0.0670891
0.0735266
0.0808235
0.0888364
0.0974137
0.106361
0.115528
0.124799
0.134176
0.143759
0.153837
0.164785
0.177013
0.190819
0.206369
0.223647
0.24253
0.262811
0.284277
0.306724
0.329991
0.353946
0.378507
0.403631
0.429326
0.455641
0.482656
0.510471
0.539185
0.568905
0.599727
0.631746
0.665039
0.699684
0.73574
0.77326
0.812278
0.852834
0.894951
0.938651
0.983941
1.03083
1.07931
1.12937
1.181
1.23416
1.28882
1.34492
1.4024
1.46119
1.5212
1.58234
1.64449
1.70749
1.77121
1.83549
1.90022
1.96528
2.03053
2.09586
2.16115
2.22632
2.29129
2.35601
2.42042
2.48445
2.54807
2.61119
2.67377
2.73576
2.79713
2.85786
2.91796
2.97738
3.0361
3.09406
3.15123
3.20756
3.26302
3.31758
3.37121
3.42385
3.47546
3.52599
3.57538
3.62361
3.67064
3.71641
3.76088
3.804
3.84571
3.88598
3.92474
3.96196
3.9976
4.03162
4.06397
4.09462
4.12352
4.15065
4.17597
4.19946
4.22109
4.24087
4.25877
4.2748
4.28893
4.30117
4.31152
4.31998
4.32656
4.33127
4.33413
4.33513
4.33436
4.33173
4.32727
4.32107
4.31315
4.30355
4.2923
4.27943
4.26499
4.24902
4.23156
4.21266
4.19238
4.17078
4.1479
4.1238
4.09855
4.07218
4.04473
4.01623
3.98678
3.95647
3.92537
3.89357
3.86114
3.82814
3.79464
3.76069
3.72634
3.69166
3.65664
3.62137
3.58592
3.55037
3.51478
3.47924
3.4438
3.40854
3.37352
3.33881
3.30449
3.27065
3.23737
3.20472
3.17202
3.13783
0.00267358
0.0342608
0.0578497
0.0676456
0.0713818
0.0721337
0.0710392
0.0687725
0.0659459
0.0631333
0.0607669
0.059076
0.058272
0.058177
0.0590094
0.0606935
0.0632258
0.0665817
0.0707474
0.0756915
0.0813659
0.0876879
0.0945873
0.101984
0.109832
0.118079
0.126736
0.135843
0.145542
0.15601
0.167475
0.180122
0.194104
0.209451
0.226135
0.244043
0.263046
0.282993
0.303764
0.325249
0.347381
0.37011
0.393427
0.417351
0.441932
0.467246
0.493387
0.520461
0.54857
0.577821
0.608309
0.640139
0.673399
0.708184
0.744565
0.782617
0.822401
0.863975
0.907388
0.952682
0.999885
1.04902
1.10009
1.15308
1.20798
1.26474
1.32332
1.38362
1.44553
1.50894
1.57371
1.63969
1.70672
1.77461
1.84314
1.91215
1.98148
2.05103
2.12069
2.19035
2.25991
2.32929
2.39841
2.46721
2.53562
2.60358
2.67101
2.73781
2.80394
2.86936
2.93406
2.99804
3.06128
3.12377
3.18545
3.24627
3.3062
3.3652
3.42324
3.48029
3.53631
3.59125
3.64507
3.69772
3.74915
3.79931
3.84818
3.8957
3.94183
3.98651
4.02969
4.07132
4.11135
4.14972
4.18642
4.22138
4.25456
4.28593
4.31544
4.34306
4.36875
4.3925
4.41427
4.43408
4.45189
4.46772
4.48154
4.49337
4.50321
4.51106
4.51694
4.52086
4.52285
4.52291
4.52116
4.51735
4.51171
4.50426
4.49504
4.48407
4.47139
4.45705
4.44109
4.42355
4.40447
4.38393
4.36196
4.33863
4.31399
4.28812
4.26106
4.23286
4.20357
4.17316
4.14179
4.10953
4.07649
4.04272
4.0083
3.9733
3.93777
3.90178
3.86538
3.82861
3.79146
3.75402
3.71639
3.67864
3.64085
3.60309
3.56542
3.52791
3.49062
3.45361
3.41696
3.38077
3.34512
3.31015
3.27518
3.23909
0.00352861
0.0402795
0.0649091
0.0749541
0.0786416
0.0792526
0.0778101
0.0751976
0.0723487
0.0699174
0.0682402
0.0674865
0.0673959
0.0681058
0.0696201
0.0719261
0.0749697
0.0787024
0.0830926
0.0880992
0.0936945
0.0998449
0.10655
0.113794
0.121607
0.130018
0.139113
0.14897
0.159714
0.171432
0.184205
0.198056
0.212981
0.228917
0.245792
0.263507
0.281983
0.301143
0.320942
0.341351
0.362366
0.384005
0.406303
0.429314
0.453115
0.477802
0.503481
0.53026
0.558216
0.587458
0.618097
0.650252
0.684029
0.719539
0.75688
0.796148
0.83743
0.880804
0.926348
0.974121
1.02418
1.07654
1.1312
1.18816
1.24737
1.30877
1.37225
1.43765
1.50483
1.57361
1.64378
1.7151
1.7873
1.86015
1.93345
2.00699
2.08058
2.15408
2.22754
2.30092
2.37417
2.4472
2.51991
2.59225
2.66411
2.73541
2.80602
2.87589
2.94494
3.01322
3.08065
3.14724
3.21298
3.27785
3.34179
3.40476
3.46672
3.52764
3.58749
3.64625
3.70388
3.76035
3.8156
3.86958
3.92226
3.97358
4.02351
4.07201
4.11903
4.16453
4.20844
4.2507
4.29127
4.33009
4.36714
4.40236
4.4357
4.46713
4.4966
4.52407
4.54952
4.57292
4.59425
4.61349
4.63066
4.64575
4.65874
4.66965
4.67849
4.68526
4.68999
4.6927
4.69342
4.69224
4.68901
4.68376
4.67664
4.66767
4.65689
4.64433
4.63004
4.61405
4.59641
4.57717
4.55638
4.53409
4.51037
4.48527
4.45885
4.43117
4.40231
4.37231
4.34122
4.30903
4.27588
4.24185
4.20702
4.17144
4.1352
4.09835
4.06097
4.02311
3.98482
3.94615
3.90705
3.86764
3.82802
3.78829
3.74849
3.7087
3.66899
3.62941
3.59003
3.55087
3.51204
3.47366
3.4358
3.39864
3.36152
3.32373
0.0044243
0.0461928
0.0719705
0.0822681
0.0858842
0.0863106
0.0844582
0.0817
0.0791263
0.0773021
0.0764472
0.0762801
0.0768281
0.0780539
0.0800404
0.0827269
0.0860627
0.0900105
0.0945582
0.0996942
0.105435
0.111781
0.118777
0.126446
0.134859
0.144048
0.15409
0.165004
0.176841
0.189569
0.203192
0.217649
0.232903
0.248868
0.265502
0.282742
0.300575
0.318983
0.33799
0.357619
0.377918
0.398933
0.420739
0.443421
0.467089
0.491878
0.517963
0.54536
0.574051
0.604201
0.63596
0.669475
0.704865
0.742278
0.78182
0.823623
0.867778
0.914399
0.963539
1.01529
1.0697
1.12681
1.18653
1.24883
1.31359
1.38071
1.45004
1.52141
1.59461
1.66938
1.74538
1.82221
1.89937
1.9768
2.05438
2.13192
2.20918
2.2861
2.36283
2.43935
2.51557
2.59139
2.66676
2.74178
2.81616
2.88981
2.96265
3.03463
3.10578
3.17599
3.24522
3.31346
3.3807
3.44691
3.51206
3.57609
3.63899
3.7007
3.76124
3.82058
3.87871
3.93557
3.99113
4.04534
4.09815
4.14952
4.19943
4.24784
4.2947
4.33997
4.38358
4.42547
4.46559
4.5039
4.54034
4.57488
4.60748
4.63808
4.66664
4.69312
4.71748
4.73972
4.75981
4.77775
4.79354
4.80717
4.81865
4.82799
4.8352
4.8403
4.84332
4.8443
4.84335
4.84033
4.83519
4.82813
4.81917
4.80837
4.79575
4.78136
4.76523
4.74742
4.72796
4.70691
4.68432
4.66024
4.63473
4.60785
4.57967
4.55024
4.51962
4.48788
4.45509
4.4213
4.38657
4.35094
4.31449
4.27729
4.23941
4.2009
4.16184