/*--------------------------------*- C++ -*----------------------------------*\
  =========                 |
  \\      /  F ield         | OpenFOAM: The Open Source CFD Toolbox
   \\    /   O peration     | Website:  https://openfoam.org
    \\  /    A nd           | Version:  13
     \\/     M anipulation  |
\*---------------------------------------------------------------------------*/
FoamFile
{
    format      ascii;
    class       volScalarField;
    location    "700";
    object      nut;
}
// * * * * * * * * * * * * * * * * * * * * * * * * * * * * * * * * * * * * * //

dimensions      [0 2 -1 0 0 0 0];

internalField   nonuniform List<scalar> 
12225
(
6.66094e-06
1.38203e-05
1.79214e-05
2.12157e-05
1.99149e-05
2.03174e-05
2.11183e-05
1.58598e-05
2.54253e-05
3.47259e-05
3.67625e-05
2.39526e-05
2.61667e-05
2.75736e-05
2.538e-05
2.97951e-05
2.57717e-05
2.00039e-05
3.24073e-05
3.55955e-05
3.33286e-05
3.34037e-05
2.99301e-05
3.30521e-05
3.47469e-05
3.44109e-05
2.95522e-05
3.14737e-05
3.55088e-05
3.22961e-05
3.43754e-05
3.41321e-05
3.6307e-05
3.77699e-05
3.96351e-05
4.06443e-05
0.000159625
0.000107092
6.89672e-05
4.60127e-05
2.89897e-05
2.73496e-05
2.33999e-05
2.23838e-05
1.80686e-05
1.51054e-05
1.54652e-05
1.58045e-05
1.66754e-05
1.74597e-05
1.81717e-05
1.90933e-05
1.96448e-05
2.07951e-05
0.00282964
0.000114773
8.0469e-05
4.47085e-05
3.63298e-05
2.32571e-05
2.11659e-05
1.71096e-05
1.53688e-05
1.47588e-05
1.4776e-05
1.71472e-05
1.86326e-05
2.07856e-05
2.04063e-05
1.78545e-05
1.51724e-05
1.15208e-05
0.00359739
7.73309e-05
5.49655e-05
3.37845e-05
2.51774e-05
2.19138e-05
2.2237e-05
2.3483e-05
2.44147e-05
2.58427e-05
3.07099e-05
3.68875e-05
4.10353e-05
4.85052e-05
5.40785e-05
5.24459e-05
4.79022e-05
3.714e-05
0.0041924
0.000130511
9.18825e-05
6.50161e-05
5.73459e-05
5.481e-05
5.72507e-05
6.39407e-05
6.82871e-05
7.86755e-05
8.96683e-05
0.000103553
0.000111104
0.000129505
0.000141607
0.000144628
0.000141129
0.000128121
0.00527987
0.000290217
0.00014773
0.000128842
0.000127375
0.000134604
0.000140519
0.000146066
0.000165556
0.00018885
0.000206518
0.000226184
0.000245849
0.0002637
0.000280989
0.000281657
0.000277633
0.000260631
0.0010057
0.000679917
0.00036942
0.000309704
0.000313576
0.000300477
0.000328386
0.00031965
0.000331726
0.000339606
0.000363717
0.00038569
0.000396818
0.000402281
0.000405982
0.000410574
0.000410781
0.000402332
0.000899088
0.000809758
0.000681614
0.000583575
0.000559373
0.000536336
0.000530423
0.00055817
0.000540274
0.000556674
0.000547396
0.000545492
0.000545252
0.000559473
0.000556914
0.000561613
0.000557532
0.000550382
0.000859786
0.00084091
0.000809556
0.000771588
0.000730538
0.000717538
0.000706673
0.0007271
0.00070777
0.000717866
0.000721391
0.000704951
0.000709099
0.000699739
0.000700597
0.000693867
0.00068719
0.000675104
0.00085238
0.000847844
0.000842691
0.000834341
0.000817214
0.000817085
0.000803774
0.000800724
0.00079634
0.000793694
0.000800289
0.000792882
0.000789636
0.000788009
0.000784106
0.000777896
0.000767168
0.000756571
0.000850877
0.000850297
0.000848662
0.00084668
0.000842958
0.000840805
0.00083943
0.000837738
0.000836514
0.000834267
0.000833557
0.000831758
0.000827899
0.0008247
0.000820948
0.000816246
0.000810013
0.00080412
0.000851377
0.000850542
0.000849671
0.000848792
0.000847776
0.000846576
0.000845954
0.000845031
0.000844489
0.000843317
0.000842774
0.000841374
0.000840203
0.000838728
0.000836939
0.000834416
0.000832343
0.000829609
0.000851516
0.000850644
0.000849846
0.000849046
0.000848352
0.000847533
0.000846922
0.000846198
0.000845687
0.000844955
0.000844468
0.000843689
0.000843065
0.000842193
0.000841422
0.000840267
0.0008394
0.000838084
0.00085154
0.000850667
0.000849862
0.00084907
0.000848356
0.000847627
0.000846979
0.000846316
0.00084574
0.000845132
0.000844604
0.00084403
0.000843519
0.000842953
0.000842444
0.000841868
0.000841355
0.00084078
0.000851539
0.000850672
0.000849856
0.000849072
0.000848337
0.000847626
0.000846959
0.000846314
0.000845709
0.000845122
0.000844572
0.000844035
0.00084353
0.000843034
0.000842567
0.000842108
0.000841674
0.000841248
0.000851538
0.000850673
0.000849852
0.00084907
0.000848327
0.000847619
0.000846946
0.000846302
0.00084569
0.000845105
0.000844547
0.000844013
0.000843504
0.000843015
0.00084255
0.000842103
0.000841676
0.000841266
0.000851539
0.000850677
0.000849858
0.000849077
0.000848334
0.000847627
0.000846952
0.000846309
0.000845695
0.000845109
0.000844549
0.000844015
0.000843503
0.000843015
0.000842547
0.0008421
0.000841671
0.000841262
0.000851537
0.000850674
0.000849851
0.000849069
0.000848324
0.000847614
0.000846937
0.000846293
0.000845676
0.000845089
0.000844527
0.000843991
0.000843478
0.000842988
0.000842518
0.00084207
0.000841638
0.000841227
0.000851535
0.000850675
0.000849849
0.000849071
0.000848322
0.000847618
0.000846936
0.000846297
0.000845676
0.000845094
0.000844527
0.000843999
0.00084348
0.000842996
0.000842514
0.000842059
0.000841599
0.000841164
0.000851535
0.000850679
0.000849849
0.000849083
0.000848322
0.000847639
0.000846938
0.000846323
0.000845679
0.000845121
0.000844535
0.000844062
0.000843507
0.000843021
0.00084243
0.000841836
0.000841147
0.000840469
0.000851543
0.000850673
0.000849866
0.000849104
0.000848335
0.000847683
0.000846925
0.000846388
0.00084563
0.000845188
0.000844487
0.000844436
0.000843437
0.000842942
0.000841574
0.000840431
0.000839983
0.000837384
0.000851558
0.000850656
0.000849952
0.000849116
0.000848368
0.00084764
0.000846787
0.000846175
0.00084522
0.000844615
0.000843982
0.000844973
0.000843232
0.000839227
0.000832303
0.000822829
0.000810381
0.000797595
0.00085155
0.000850679
0.000850093
0.000848697
0.000847923
0.000846078
0.000844637
0.00084246
0.000840431
0.000838589
0.000836062
0.000831855
0.00082634
0.0008132
0.000795078
0.000767789
0.000737314
0.000706516
0.000851494
0.000850937
0.000847829
0.000844145
0.000838999
0.000832866
0.000825235
0.000816758
0.000808257
0.000799513
0.000789529
0.00077572
0.00076333
0.000737871
0.000714147
0.000665672
0.000630997
0.000586459
0.000851258
0.000845159
0.000825577
0.000807445
0.000783374
0.00075815
0.000731623
0.000707099
0.000684172
0.000661486
0.000640952
0.000614415
0.000595744
0.000564844
0.000537505
0.000496747
0.000453945
0.000420016
0.00082593
0.000786851
0.000702033
0.000640549
0.00057808
0.000525057
0.000478793
0.000443543
0.000413254
0.000388618
0.000366426
0.000345935
0.000326801
0.000306324
0.000281893
0.000259548
0.000231233
0.000209248
0.00065206
0.000484677
0.000350579
0.000281526
0.000235249
0.000200822
0.000177875
0.000161305
0.000149517
0.000140041
0.000132122
0.00012568
0.000118571
0.00011147
0.000102582
9.29327e-05
8.39226e-05
7.49075e-05
0.000204805
0.000102697
7.16244e-05
6.15761e-05
5.69151e-05
5.48881e-05
5.40047e-05
5.36388e-05
5.39462e-05
5.43793e-05
5.54248e-05
5.66314e-05
5.81369e-05
5.9654e-05
6.12593e-05
6.1089e-05
6.10304e-05
6.10093e-05
1.28137e-05
1.67545e-05
1.94769e-05
2.10482e-05
2.19242e-05
2.21318e-05
2.21903e-05
2.20005e-05
2.17097e-05
2.13814e-05
2.10479e-05
2.0729e-05
2.04328e-05
2.01661e-05
1.99223e-05
1.97134e-05
1.95206e-05
1.93563e-05
1.37944e-12
1.55336e-10
7.90881e-10
3.10095e-09
1.03169e-08
3.10529e-08
8.25076e-08
1.66423e-07
2.7278e-07
3.8738e-07
4.91625e-07
5.74916e-07
6.31426e-07
6.58178e-07
6.53669e-07
6.29501e-07
5.86013e-07
5.14125e-07
4.33335e-07
3.68143e-07
3.08756e-07
2.52416e-07
1.97954e-07
1.47773e-07
1.01355e-07
6.32577e-08
3.5897e-08
1.89394e-08
9.76926e-09
5.20619e-09
3.01785e-09
1.96819e-09
1.55088e-09
2.07399e-09
3.43523e-09
1.37459e-08
3.18385e-08
1.01601e-07
2.15228e-07
3.1932e-07
3.42306e-07
3.18271e-07
2.62139e-07
2.44056e-07
2.62402e-07
3.5035e-07
4.30676e-07
7.37237e-07
1.39626e-06
3.45608e-06
1.06176e-05
2.42204e-05
3.62177e-05
4.16576e-05
4.31328e-05
4.13272e-05
3.45489e-05
3.97168e-05
3.89597e-05
4.15818e-05
3.72036e-05
3.94484e-05
3.29147e-05
3.12774e-05
3.2566e-05
3.31196e-05
3.36315e-05
3.42154e-05
3.47871e-05
3.53061e-05
3.58679e-05
3.63855e-05
3.6923e-05
3.74419e-05
3.79658e-05
3.84823e-05
3.89999e-05
3.9513e-05
4.00274e-05
4.05381e-05
4.10513e-05
4.15606e-05
4.20734e-05
4.25821e-05
4.30959e-05
4.36054e-05
4.41201e-05
4.46298e-05
4.5142e-05
4.56487e-05
4.61554e-05
4.66626e-05
4.71707e-05
4.76778e-05
4.81836e-05
4.86869e-05
4.91873e-05
4.96842e-05
5.0178e-05
5.06701e-05
5.11654e-05
5.16712e-05
5.21745e-05
5.26804e-05
5.31897e-05
5.37028e-05
5.42205e-05
5.47423e-05
5.52699e-05
5.58027e-05
5.63424e-05
5.68889e-05
5.74433e-05
5.80063e-05
5.85786e-05
5.91612e-05
5.97546e-05
6.03606e-05
6.09801e-05
6.16149e-05
6.22647e-05
6.29308e-05
6.3613e-05
6.43151e-05
6.50368e-05
6.57831e-05
6.65522e-05
6.73494e-05
6.81713e-05
6.90183e-05
6.99447e-05
7.08861e-05
7.18764e-05
7.29052e-05
7.39866e-05
7.51367e-05
7.63537e-05
7.7631e-05
7.79838e-05
7.77432e-05
7.7486e-05
7.72165e-05
7.69331e-05
7.66374e-05
7.63289e-05
7.6009e-05
7.56776e-05
7.53366e-05
7.49832e-05
7.46232e-05
7.42499e-05
7.38724e-05
7.34811e-05
7.30873e-05
7.26811e-05
7.22722e-05
7.18541e-05
7.14333e-05
7.10051e-05
7.05744e-05
7.01405e-05
6.97065e-05
6.92724e-05
6.8839e-05
6.84074e-05
6.79775e-05
6.75504e-05
6.71263e-05
6.67059e-05
6.62901e-05
6.58787e-05
6.54725e-05
6.50702e-05
6.46715e-05
6.42704e-05
6.38613e-05
6.34289e-05
6.29496e-05
6.23707e-05
6.08396e-05
6.73801e-12
1.09447e-09
1.46406e-08
7.62575e-08
3.2897e-07
1.0637e-06
2.49498e-06
4.58198e-06
7.13185e-06
1.00681e-05
1.30829e-05
1.59194e-05
1.83821e-05
2.0217e-05
2.14772e-05
2.18233e-05
2.16924e-05
2.09827e-05
1.92256e-05
1.66352e-05
1.30906e-05
9.81062e-06
7.01588e-06
4.85845e-06
3.11676e-06
1.96528e-06
1.21543e-06
7.59401e-07
4.77661e-07
3.07624e-07
2.13621e-07
1.64351e-07
1.47693e-07
1.70014e-07
1.9423e-07
9.01427e-07
2.06301e-06
6.44137e-06
1.25094e-05
1.7329e-05
1.91236e-05
1.83312e-05
1.74962e-05
1.66864e-05
1.77484e-05
1.83441e-05
1.81923e-05
2.2221e-05
3.17461e-05
4.2489e-05
5.37792e-05
6.44163e-05
7.38477e-05
8.17349e-05
9.00114e-05
0.000101631
0.000110132
0.000122912
0.000134078
0.000152213
0.000164996
0.000180674
0.000190775
0.000199506
0.000212642
0.000224594
0.000236063
0.000247185
0.000258166
0.000268269
0.000278293
0.000287949
0.000297364
0.000306558
0.000315528
0.000324324
0.000332932
0.000341388
0.000349681
0.000357832
0.000365841
0.000373715
0.000381458
0.000389071
0.000396565
0.000403935
0.000411195
0.000418332
0.000425357
0.000432261
0.00043904
0.000445711
0.000452275
0.000458736
0.000465088
0.000471323
0.000477423
0.000483356
0.000489077
0.000494502
0.00049951
0.000503908
0.000508265
0.000512547
0.000516701
0.000520782
0.000524751
0.000528624
0.00053239
0.000536051
0.000539601
0.00054304
0.000546364
0.000549571
0.000552658
0.000555622
0.00055846
0.00056117
0.000563749
0.000566198
0.000568514
0.00057069
0.000572721
0.000574603
0.000576333
0.00057791
0.000579331
0.000580594
0.000581694
0.000582625
0.000583369
0.000583957
0.000584391
0.000584648
0.000584663
0.000584579
0.000584459
0.000584398
0.000584306
0.000584229
0.000583987
0.000583592
0.000583044
0.000582347
0.000581496
0.000580493
0.00057939
0.000578083
0.000576769
0.000575149
0.000573637
0.000571709
0.000569966
0.000567809
0.000565778
0.00056345
0.000561154
0.000558661
0.000556144
0.000553509
0.00055082
0.000548071
0.000545264
0.00054242
0.000539532
0.000536612
0.000533659
0.000530679
0.000527675
0.000524651
0.000521611
0.000518551
0.000515471
0.000512352
0.000509129
0.000505732
0.00050202
0.000497705
0.00049209
0.000476389
1.55069e-11
2.62264e-09
4.92494e-08
2.92103e-07
1.10637e-06
2.606e-06
5.62406e-06
9.86012e-06
1.51853e-05
2.1323e-05
2.7922e-05
3.44993e-05
4.04984e-05
4.55635e-05
4.96334e-05
5.22234e-05
5.38958e-05
5.43223e-05
5.35844e-05
5.11925e-05
4.73009e-05
4.20939e-05
3.53722e-05
2.83354e-05
2.17435e-05
1.59127e-05
1.10183e-05
7.46155e-06
4.84646e-06
3.16846e-06
2.18634e-06
1.63861e-06
1.34859e-06
1.42092e-06
1.89124e-06
5.35602e-06
1.41602e-05
3.16948e-05
4.69022e-05
5.47884e-05
5.37076e-05
4.38141e-05
3.80641e-05
4.01146e-05
4.78598e-05
5.54339e-05
6.56545e-05
7.96821e-05
9.19605e-05
0.000106475
0.000123977
0.0001433
0.000165105
0.000189216
0.000217021
0.00024614
0.000274271
0.000306438
0.000337286
0.000368221
0.00039718
0.000425104
0.000450799
0.000475896
0.000500248
0.000524497
0.000546926
0.000568849
0.000589693
0.000609864
0.000629537
0.000648675
0.000667379
0.000685686
0.000703624
0.000721235
0.000738528
0.000755531
0.000772249
0.000788699
0.000804886
0.000820819
0.000836502
0.000851942
0.000867144
0.000882111
0.000896847
0.00091135
0.000925619
0.000939646
0.000953429
0.000966977
0.00098029
0.000993361
0.00100617
0.00101871
0.00103094
0.00104283
0.00105434
0.00106542
0.00107606
0.00108637
0.00109653
0.0011065
0.00111624
0.00112579
0.00113512
0.00114423
0.0011531
0.00116175
0.00117016
0.00117832
0.00118623
0.00119389
0.00120129
0.00120842
0.00121527
0.00122185
0.00122815
0.00123416
0.00123989
0.00124531
0.00125042
0.00125522
0.00125969
0.00126383
0.00126764
0.00127112
0.00127425
0.00127703
0.00127945
0.00128153
0.00128327
0.00128466
0.00128566
0.0012863
0.00128688
0.00128725
0.00128731
0.00128712
0.00128656
0.00128566
0.00128442
0.00128283
0.0012809
0.00127865
0.00127611
0.00127321
0.00127009
0.00126656
0.00126291
0.00125877
0.00125459
0.00124992
0.0012452
0.00124008
0.00123485
0.00122932
0.00122366
0.0012178
0.00121181
0.00120569
0.00119946
0.00119315
0.00118675
0.00118029
0.00117377
0.0011672
0.00116058
0.00115394
0.00114727
0.00114057
0.00113383
0.001127
0.00111998
0.0011126
0.00110456
0.00109513
0.00108252
0.00105414
5.82757e-11
9.88545e-09
1.6123e-07
6.82316e-07
2.24719e-06
6.09218e-06
1.23211e-05
2.07744e-05
3.09386e-05
4.17848e-05
5.23622e-05
6.215e-05
7.07074e-05
7.75701e-05
8.26804e-05
8.62601e-05
8.79831e-05
8.82024e-05
8.70512e-05
8.47434e-05
8.07843e-05
7.59007e-05
6.94178e-05
6.14155e-05
5.22019e-05
4.2648e-05
3.33862e-05
2.54179e-05
1.90405e-05
1.40368e-05
1.04639e-05
8.03614e-06
6.57788e-06
7.64482e-06
1.23722e-05
2.63549e-05
4.74375e-05
6.37066e-05
6.93601e-05
6.7628e-05
6.70037e-05
6.93545e-05
7.48474e-05
8.37809e-05
9.6122e-05
0.000112801
0.000125579
0.000148806
0.000170733
0.000200704
0.00023316
0.000270036
0.000309667
0.000351928
0.00039589
0.000440037
0.000484051
0.000527989
0.000571005
0.000612228
0.00065218
0.000690044
0.000726123
0.000761825
0.000795712
0.000828705
0.000860202
0.000890844
0.000920539
0.000949507
0.000977829
0.00100555
0.00103274
0.00105944
0.00108569
0.0011115
0.00113691
0.00116192
0.00118655
0.00121081
0.0012347
0.00125822
0.00128139
0.0013042
0.00132667
0.00134878
0.00137055
0.00139197
0.00141303
0.00143374
0.00145407
0.00147405
0.00149365
0.00151289
0.00153174
0.00155018
0.0015682
0.00158579
0.00160293
0.00161962
0.00163591
0.00165186
0.00166752
0.00168287
0.0016979
0.0017126
0.00172696
0.00174098
0.00175465
0.00176795
0.00178088
0.00179344
0.00180561
0.00181739
0.00182876
0.00183973
0.00185028
0.0018604
0.0018701
0.00187936
0.00188819
0.00189655
0.00190446
0.00191189
0.00191883
0.00192529
0.00193126
0.00193673
0.0019417
0.00194616
0.00195012
0.00195356
0.0019565
0.00195893
0.00196081
0.00196216
0.00196331
0.00196399
0.00196419
0.0019639
0.00196311
0.0019618
0.00196
0.00195769
0.0019549
0.00195163
0.0019479
0.0019437
0.00193908
0.00193399
0.00192855
0.00192261
0.00191638
0.00190966
0.00190267
0.00189525
0.00188755
0.0018795
0.0018712
0.00186264
0.00185386
0.0018449
0.00183578
0.00182652
0.00181715
0.00180768
0.00179812
0.00178849
0.0017788
0.00176906
0.00175929
0.00174949
0.00173963
0.00172966
0.00171945
0.00170879
0.00169728
0.00168385
0.00166622
0.00163267
1.95979e-10
2.97328e-08
3.59439e-07
1.70783e-06
5.87057e-06
1.4429e-05
2.71847e-05
4.28084e-05
5.93839e-05
7.52559e-05
8.92905e-05
0.00010082
0.00010938
0.000115638
0.000119305
0.000121023
0.000121079
0.000119747
0.000117227
0.000113697
0.000108887
0.000103468
9.69555e-05
8.92193e-05
8.00592e-05
6.97436e-05
5.86507e-05
4.80046e-05
3.87378e-05
3.12072e-05
2.49291e-05
2.09866e-05
2.0903e-05
2.77713e-05
4.60907e-05
6.69974e-05
7.99878e-05
8.65178e-05
9.00076e-05
9.37146e-05
9.99375e-05
0.000110123
0.000125377
0.000140604
0.000154997
0.00018024
0.000209617
0.000245306
0.000284017
0.000329873
0.000377401
0.000428686
0.000481336
0.000535278
0.000589337
0.000642877
0.000695789
0.000747554
0.000798106
0.000846805
0.000893811
0.000939456
0.000983581
0.00102632
0.0010676
0.00110774
0.00114669
0.0011847
0.00122182
0.00125817
0.00129382
0.00132883
0.00136324
0.0013971
0.00143043
0.00146325
0.00149559
0.00152744
0.00155881
0.00158972
0.00162016
0.00165014
0.00167966
0.00170872
0.00173732
0.00176547
0.00179316
0.0018204
0.00184717
0.00187348
0.00189931
0.00192467
0.00194955
0.00197396
0.00199788
0.00202131
0.00204424
0.00206667
0.00208862
0.00211009
0.00213111
0.00215171
0.0021719
0.00219166
0.00221099
0.00222988
0.00224832
0.00226631
0.00228382
0.00230085
0.00231739
0.00233343
0.00234896
0.00236398
0.00237848
0.00239243
0.00240585
0.00241872
0.00243103
0.00244278
0.00245397
0.00246457
0.00247458
0.002484
0.00249281
0.00250101
0.00250859
0.00251556
0.0025219
0.00252763
0.00253276
0.00253723
0.00254104
0.00254428
0.00254679
0.00254873
0.0025503
0.00255122
0.00255153
0.00255122
0.0025503
0.00254875
0.00254659
0.00254383
0.00254048
0.00253655
0.00253204
0.00252698
0.00252138
0.00251524
0.00250862
0.00250147
0.00249388
0.00248579
0.00247728
0.0024683
0.00245894
0.00244918
0.00243908
0.00242867
0.00241799
0.00240706
0.00239593
0.00238462
0.00237316
0.00236157
0.00234985
0.00233804
0.00232614
0.00231418
0.00230217
0.0022901
0.00227795
0.00226568
0.00225318
0.00224022
0.0022264
0.00221058
0.00219024
0.00215657
6.20682e-10
7.42254e-08
8.92771e-07
4.49244e-06
1.50849e-05
3.25584e-05
5.41733e-05
7.6674e-05
9.69139e-05
0.00011328
0.000125579
0.000134898
0.000140972
0.000144521
0.000146095
0.000146082
0.000144747
0.000142264
0.000138806
0.000134402
0.000128972
0.000123084
0.000116283
0.000108419
9.9497e-05
8.52873e-05
7.10158e-05
5.7259e-05
4.46329e-05
3.55523e-05
3.25525e-05
3.57265e-05
4.90261e-05
7.04467e-05
8.93612e-05
0.000101869
0.000109648
0.000115462
0.000122702
0.000134367
0.000152421
0.000163934
0.00018071
0.00020623
0.000236711
0.000275278
0.000318779
0.000368151
0.000420689
0.000477426
0.000535348
0.000595316
0.000655692
0.000716237
0.000776239
0.000835392
0.000893645
0.000950247
0.00100559
0.00105979
0.00111229
0.00116333
0.00121297
0.00126125
0.00130827
0.00135415
0.00139897
0.00144284
0.00148586
0.00152809
0.0015696
0.00161043
0.00165063
0.00169022
0.00172923
0.00176766
0.00180554
0.00184285
0.00187961
0.00191581
0.00195146
0.00198656
0.0020211
0.0020551
0.00208854
0.00212143
0.00215378
0.00218558
0.00221683
0.00224753
0.00227766
0.00230723
0.00233625
0.00236471
0.0023926
0.00241994
0.00244671
0.00247293
0.00249861
0.00252375
0.00254836
0.00257247
0.00259605
0.00261911
0.00264165
0.00266364
0.00268508
0.00270596
0.00272627
0.002746
0.00276513
0.00278367
0.0028016
0.00281891
0.0028356
0.00285165
0.00286706
0.00288181
0.00289591
0.00290936
0.00292214
0.00293424
0.00294566
0.00295639
0.00296643
0.00297577
0.00298441
0.00299235
0.00299958
0.00300614
0.00301205
0.00301716
0.00302159
0.00302534
0.00302827
0.00303064
0.00303246
0.00303356
0.00303397
0.0030337
0.00303275
0.00303111
0.00302881
0.00302585
0.00302224
0.003018
0.00301312
0.00300763
0.00300155
0.0029949
0.00298769
0.00297992
0.00297164
0.00296283
0.00295353
0.00294374
0.0029335
0.00292283
0.00291176
0.00290034
0.00288861
0.00287658
0.00286431
0.00285183
0.00283915
0.0028263
0.0028133
0.00280017
0.00278693
0.0027736
0.00276019
0.00274673
0.00273318
0.00271952
0.00270566
0.0026914
0.00267637
0.0026596
0.00263865
0.00260704
1.95769e-09
1.86268e-07
2.34463e-06
1.24246e-05
3.34957e-05
6.1041e-05
8.8189e-05
0.000110824
0.000128404
0.000141518
0.000151032
0.000157061
0.000160556
0.000162082
0.000162106
0.000160923
0.00015872
0.000155613
0.000151585
0.00014658
0.000140711
0.000134071
0.000126231
0.000113932
9.82285e-05
8.45491e-05
7.21103e-05
6.12801e-05
5.45637e-05
5.56923e-05
6.58684e-05
8.20004e-05
0.000103643
0.000118445
0.000129557
0.000137936
0.000146326
0.000158532
0.000176624
0.000185117
0.000201839
0.000226316
0.000256278
0.000294182
0.000338119
0.000388875
0.000443821
0.00050268
0.000563686
0.000626806
0.000690687
0.000755302
0.00081985
0.000884077
0.000947614
0.0010098
0.00107097
0.00113116
0.00118999
0.00124755
0.00130371
0.00135852
0.00141205
0.00146435
0.00151552
0.00156562
0.00161474
0.00166297
0.00171035
0.00175697
0.00180285
0.00184805
0.00189259
0.0019365
0.00197977
0.00202243
0.00206447
0.00210589
0.00214669
0.00218686
0.00222641
0.00226533
0.00230361
0.00234128
0.00237831
0.00241472
0.00245051
0.00248568
0.00252024
0.00255417
0.00258748
0.00262016
0.00265223
0.00268367
0.0027145
0.00274471
0.00277429
0.00280326
0.0028316
0.00285933
0.00288647
0.00291301
0.00293895
0.00296429
0.00298902
0.00301312
0.00303659
0.00305942
0.00308159
0.00310311
0.00312395
0.00314412
0.0031636
0.00318239
0.00320048
0.00321787
0.00323456
0.00325053
0.00326578
0.00328029
0.00329407
0.00330711
0.00331941
0.00333095
0.00334174
0.00335178
0.00336106
0.00336958
0.00337736
0.00338441
0.0033908
0.00339631
0.00340112
0.00340518
0.00340838
0.00341103
0.003413
0.00341424
0.00341475
0.00341454
0.00341362
0.00341199
0.00340967
0.00340667
0.00340299
0.00339867
0.00339376
0.00338823
0.0033821
0.00337537
0.00336806
0.00336018
0.00335176
0.0033428
0.00333332
0.00332333
0.00331285
0.00330193
0.00329058
0.00327885
0.00326677
0.00325437
0.00324168
0.00322875
0.00321559
0.00320222
0.00318866
0.00317493
0.00316106
0.00314708
0.003133
0.00311884
0.0031046
0.00309026
0.00307574
0.00306092
0.00304549
0.00302865
0.00300849
0.00297993
5.8504e-09
4.88157e-07
6.20561e-06
2.7243e-05
5.90762e-05
9.20528e-05
0.000120035
0.000141209
0.000156076
0.000165639
0.000170752
0.00017303
0.000173542
0.000172813
0.000171117
0.000168619
0.000165345
0.000161138
0.000155998
0.000150067
0.000143476
0.0001359
0.000124613
0.000107899
9.30252e-05
8.12013e-05
7.4389e-05
7.49458e-05
7.86719e-05
9.21409e-05
0.000114067
0.00013716
0.00015495
0.000164685
0.000174466
0.000186754
0.000196574
0.000204544
0.000219671
0.000241615
0.000269917
0.000305548
0.000347537
0.00039648
0.000450871
0.000509961
0.000571835
0.00063596
0.000701435
0.000767973
0.000834874
0.000901848
0.000968498
0.00103418
0.00109897
0.00116316
0.00122617
0.00128813
0.00134888
0.00140842
0.00146674
0.00152386
0.00157983
0.0016347
0.00168853
0.00174139
0.00179334
0.00184443
0.00189473
0.00194429
0.00199313
0.0020413
0.00208882
0.00213568
0.0021819
0.00222748
0.00227241
0.00231668
0.00236029
0.00240322
0.00244547
0.00248704
0.00252792
0.00256811
0.00260763
0.00264646
0.00268462
0.00272212
0.00275895
0.00279512
0.00283063
0.00286546
0.00289964
0.00293316
0.00296603
0.00299823
0.00302978
0.00306064
0.00309083
0.00312039
0.00314929
0.00317756
0.00320517
0.00323212
0.0032584
0.003284
0.00330892
0.00333313
0.00335665
0.00337944
0.00340151
0.00342284
0.00344343
0.00346328
0.00348236
0.00350069
0.00351824
0.00353502
0.00355103
0.00356625
0.00358069
0.00359434
0.00360721
0.00361929
0.00363058
0.00364108
0.0036508
0.00365973
0.00366788
0.0036753
0.00368204
0.0036879
0.00369303
0.00369737
0.00370086
0.0037038
0.003706
0.00370746
0.0037082
0.00370821
0.00370751
0.00370611
0.00370401
0.00370123
0.00369779
0.0036937
0.00368896
0.0036836
0.00367762
0.00367105
0.00366389
0.00365616
0.00364788
0.00363904
0.00362968
0.00361979
0.00360941
0.00359856
0.00358728
0.00357558
0.00356351
0.0035511
0.00353838
0.00352537
0.0035121
0.00349859
0.00348486
0.00347092
0.00345681
0.00344255
0.00342817
0.00341369
0.00339912
0.00338445
0.00336965
0.00335461
0.00333913
0.00332264
0.00330369
0.00327863
1.5334e-08
1.20859e-06
1.42444e-05
4.67748e-05
8.5991e-05
0.000120008
0.000145731
0.000163354
0.000174547
0.000180668
0.000183071
0.00018282
0.000180766
0.000177635
0.000173843
0.000169525
0.000164665
0.000159236
0.000153228
0.000146535
0.000139356
0.000131302
0.000119977
0.000110392
0.000105292
9.83583e-05
9.71663e-05
0.000106307
0.000123161
0.000142742
0.000162629
0.000180341
0.000194473
0.000203927
0.000211969
0.000221065
0.000234695
0.000253733
0.000279374
0.000311848
0.000350832
0.000396322
0.000447612
0.000504258
0.000564892
0.000628474
0.000693879
0.000760631
0.000828122
0.000896022
0.000963936
0.0010314
0.00109805
0.00116433
0.00122964
0.00129417
0.00135765
0.00142008
0.00148142
0.00154165
0.00160077
0.00165881
0.00171581
0.00177181
0.00182688
0.00188105
0.00193439
0.00198693
0.00203873
0.00208983
0.00214028
0.0021901
0.0022393
0.00228789
0.00233584
0.00238316
0.00242984
0.00247586
0.0025212
0.00256585
0.00260979
0.002653
0.0026955
0.00273728
0.00277836
0.00281876
0.00285848
0.0028975
0.00293582
0.00297343
0.00301035
0.00304657
0.00308211
0.00311696
0.00315113
0.00318462
0.00321743
0.00324957
0.00328103
0.00331182
0.00334193
0.00337136
0.00340009
0.00342813
0.00345546
0.00348207
0.00350795
0.0035331
0.0035575
0.00358113
0.00360401
0.0036261
0.00364741
0.00366794
0.00368767
0.00370659
0.00372471
0.00374202
0.00375852
0.0037742
0.00378907
0.00380313
0.00381638
0.00382881
0.00384044
0.00385126
0.00386128
0.00387051
0.00387894
0.00388665
0.00389365
0.00389982
0.00390523
0.00390985
0.00391368
0.0039169
0.00391939
0.00392115
0.0039222
0.00392255
0.0039222
0.00392116
0.00391946
0.00391709
0.00391407
0.00391043
0.00390615
0.00390127
0.00389579
0.00388973
0.0038831
0.00387591
0.00386817
0.00385989
0.00385107
0.00384174
0.00383191
0.00382161
0.00381086
0.00379969
0.00378814
0.00377621
0.00376396
0.00375139
0.00373852
0.00372538
0.00371198
0.00369834
0.0036845
0.00367047
0.00365628
0.00364196
0.00362754
0.00361301
0.00359837
0.00358356
0.00356842
0.00355248
0.00353456
0.00351243
3.45408e-08
2.79998e-06
2.62334e-05
6.95291e-05
0.000112664
0.000146231
0.000168727
0.000182672
0.000189859
0.000191665
0.000189965
0.00018615
0.000181144
0.000175501
0.000169573
0.000163125
0.00015654
0.000149288
0.000141957
0.00013426
0.000126379
0.000118494
0.000112086
0.000109095
0.000111647
0.000120258
0.00013392
0.000149917
0.000167166
0.000184016
0.000199192
0.000211266
0.000221543
0.000232876
0.000246204
0.000263556
0.000286287
0.00031523
0.000350576
0.000392022
0.000439151
0.000491573
0.000548623
0.000609526
0.000673184
0.000738725
0.000805386
0.000872749
0.000940426
0.00100815
0.00107524
0.00114188
0.00120808
0.00127354
0.00133811
0.00140177
0.00146444
0.00152608
0.00158669
0.00164626
0.00170481
0.00176235
0.00181893
0.00187462
0.00192947
0.00198354
0.00203686
0.00208944
0.00214135
0.00219267
0.00224343
0.00229365
0.00234336
0.00239261
0.00244147
0.00248987
0.00253764
0.00258474
0.00263114
0.00267681
0.00272173
0.00276589
0.00280929
0.00285191
0.00289379
0.00293491
0.00297527
0.00301494
0.00305393
0.00309225
0.0031299
0.00316688
0.00320319
0.00323885
0.00327384
0.00330818
0.00334185
0.00337486
0.00340719
0.00343884
0.0034698
0.00350005
0.0035296
0.00355843
0.00358653
0.00361388
0.00364049
0.00366633
0.0036914
0.00371568
0.00373917
0.00376186
0.00378374
0.00380481
0.00382505
0.00384447
0.00386305
0.0038808
0.00389772
0.0039138
0.00392905
0.00394347
0.00395706
0.00396982
0.00398177
0.00399291
0.00400324
0.00401277
0.00402151
0.00402955
0.00403684
0.00404334
0.0040491
0.00405407
0.00405831
0.0040619
0.00406477
0.00406694
0.00406842
0.00406923
0.00406936
0.00406884
0.00406768
0.00406588
0.00406347
0.00406044
0.00405682
0.00405262
0.00404785
0.00404252
0.00403663
0.00403021
0.00402325
0.00401576
0.00400775
0.00399922
0.00399021
0.00398072
0.00397078
0.00396042
0.00394965
0.00393851
0.00392701
0.00391517
0.00390301
0.00389054
0.00387777
0.00386473
0.00385144
0.00383793
0.00382423
0.00381037
0.00379637
0.00378226
0.00376803
0.00375366
0.00373907
0.00372392
0.00370719
0.00368813
6.70171e-08
5.83956e-06
4.05079e-05
9.06258e-05
0.000135005
0.000166976
0.000187256
0.000197268
0.000199919
0.000197734
0.000192596
0.000185785
0.000178212
0.000170043
0.000162049
0.000153869
0.000146187
0.000139358
0.000133893
0.000129473
0.000126644
0.000126442
0.000129619
0.000136357
0.000146467
0.000159197
0.000173574
0.000188454
0.000202957
0.000215866
0.000227145
0.000239864
0.00025431
0.000271091
0.000291711
0.000317551
0.000349081
0.000386321
0.000428987
0.000476638
0.000528849
0.000585157
0.000644943
0.000707459
0.000771842
0.000837401
0.000903605
0.000970109
0.00103646
0.00110222
0.00116785
0.00123274
0.00129698
0.00136037
0.00142281
0.00148425
0.00154468
0.0016041
0.00166253
0.00171999
0.00177649
0.00183199
0.0018866
0.00194044
0.00199358
0.0020461
0.00209814
0.00214997
0.00220142
0.00225238
0.00230284
0.00235282
0.00240233
0.00245141
0.00249998
0.00254805
0.00259561
0.00264259
0.00268897
0.00273473
0.00277981
0.00282416
0.00286778
0.00291067
0.00295283
0.00299429
0.00303508
0.00307522
0.0031147
0.00315355
0.00319174
0.0032293
0.00326623
0.00330252
0.00333817
0.00337318
0.00340755
0.00344125
0.00347429
0.00350665
0.00353832
0.0035693
0.00359956
0.00362909
0.00365789
0.00368594
0.00371322
0.00373973
0.00376545
0.00379038
0.0038145
0.0038378
0.00386028
0.00388193
0.00390273
0.0039227
0.00394181
0.00396008
0.00397749
0.00399405
0.00400977
0.00402464
0.00403867
0.00405187
0.00406425
0.00407581
0.00408656
0.00409651
0.0041057
0.00411416
0.00412187
0.00412881
0.00413503
0.00414049
0.00414527
0.00414936
0.00415275
0.00415546
0.00415751
0.00415891
0.00415968
0.00415982
0.00415934
0.00415826
0.0041566
0.00415435
0.00415154
0.00414818
0.00414427
0.00413983
0.00413487
0.00412938
0.00412337
0.00411685
0.00410981
0.00410227
0.00409424
0.00408575
0.00407681
0.00406744
0.00405766
0.00404749
0.00403695
0.00402605
0.00401479
0.00400319
0.00399126
0.00397902
0.00396649
0.00395371
0.0039407
0.00392749
0.00391411
0.00390058
0.00388692
0.00387314
0.0038592
0.00384486
0.00382921
0.00381287
1.10158e-07
1.04029e-05
5.56257e-05
0.000111344
0.000156318
0.000186429
0.000202716
0.000208669
0.000207686
0.000202416
0.000194767
0.000185849
0.000176775
0.000168066
0.000160438
0.000153952
0.000148904
0.000145801
0.000144421
0.000145054
0.000148012
0.000153435
0.000161235
0.000171089
0.000182539
0.000195059
0.000207957
0.000220312
0.000231998
0.000244841
0.000260045
0.000277086
0.000296554
0.000320063
0.000348233
0.000381444
0.000419609
0.000462429