/*--------------------------------*- C++ -*----------------------------------*\
  =========                 |
  \\      /  F ield         | OpenFOAM: The Open Source CFD Toolbox
   \\    /   O peration     | Website:  https://openfoam.org
    \\  /    A nd           | Version:  13
     \\/     M anipulation  |
\*---------------------------------------------------------------------------*/
FoamFile
{
    format      ascii;
    class       volScalarField;
    location    "700";
    object      omega;
}
// * * * * * * * * * * * * * * * * * * * * * * * * * * * * * * * * * * * * * //

dimensions      [0 0 -1 0 0 0 0];

internalField   nonuniform List<scalar> 
12225
(
31477.7
37088.6
43309.3
51548.5
53391.9
46107.9
41554.6
37030.7
31477.7
31477.7
31477.7
36965.2
31477.7
31477.7
31477.7
31477.7
39559.3
44837.8
11660.7
11632.9
13649
16025.6
20388.6
18611.9
18202.1
17861.6
19754.1
18281.7
17739.9
19195.7
18226.5
19221.4
18305
18822.6
18815.5
19211.2
2331.42
3351.03
4468.84
5159.79
6027.17
6351.14
7355.6
7525.38
8160.97
8931.95
8831.04
9011.2
8952.13
8971.23
8979.25
9003.84
9002.1
9080.1
0.37775
3100.61
3812.48
5258.6
5172.52
6195.65
5886.97
6179.19
6474.85
6276.19
6255.35
5807.4
5355.13
4967.93
4734.42
4601.11
4464.63
4471.69
0.385075
4562.74
5299.9
7378.92
8228.93
7945.32
7349.51
6682.21
6274.79
5534.19
4677.43
4178.07
3755.4
3308.58
2880.82
2604.42
2376.05
2325.42
0.383043
2748.19
3573.65
4584.32
4857.56
4819.43
4420.7
3847.71
3541.64
3063.63
2612.17
2356.26
2162.49
1878.1
1661.68
1515.95
1413.69
1365.37
0.379109
1260.21
2371.21
2604.04
2573.23
2388.9
2267.05
2122.8
1863.84
1591.95
1466.91
1318.66
1217.46
1122.16
1029.2
980.977
961.528
965.19
371.881
544.863
981.044
1146.5
1118.24
1156.24
1051.33
1071.86
1026.5
992.277
921.718
860.203
828.494
803.511
783.919
755.205
741.215
736.146
415.662
458.691
539.042
622.429
643.534
666.141
669.75
633.036
650.731
627.5
634.377
631.199
626.406
603.344
599.93
586.278
584.154
582.908
434.832
441.808
455.726
474.52
497.738
503.581
508.644
491.902
502.989
493.299
488.414
496.55
490.59
493.212
489.143
489.531
490.818
495.102
438.594
438.23
438.293
439.975
446.593
444.195
449.312
448.857
449.318
448.681
442.98
444.825
444.448
442.853
442.753
443.656
447.609
451.18
439.354
436.97
435.292
433.835
433.403
432.245
430.867
429.72
428.467
427.717
426.269
425.296
425.455
425.17
425.306
425.815
427.374
428.585
439.092
436.844
434.776
432.811
431.047
429.464
427.725
426.219
424.638
423.413
421.962
420.944
419.891
418.977
418.315
417.994
417.582
417.442
439.016
436.792
434.676
432.681
430.759
429.003
427.259
425.662
424.064
422.648
421.198
419.945
418.694
417.606
416.545
415.704
414.804
414.141
439.001
436.779
434.659
432.659
430.743
428.943
427.212
425.585
424.012
422.539
421.112
419.781
418.493
417.297
416.141
415.076
414.041
413.089
439
436.774
434.657
432.65
430.739
428.928
427.201
425.562
423.998
422.512
421.092
419.744
418.454
417.23
416.059
414.947
413.882
412.871
439
436.772
434.655
432.645
430.735
428.919
427.192
425.549
423.984
422.494
421.074
419.722
418.431
417.201
416.027
414.907
413.838
412.818
438.999
436.769
434.65
432.638
430.725
428.908
427.178
425.533
423.966
422.474
421.053
419.697
418.406
417.173
415.998
414.876
413.805
412.782
439
436.771
434.653
432.641
430.73
428.912
427.183
425.537
423.97
422.477
421.056
419.7
418.408
417.175
415.999
414.876
413.805
412.782
439.002
436.771
434.657
432.643
430.736
428.915
427.19
425.541
423.98
422.484
421.067
419.707
418.419
417.183
416.012
414.891
413.831
412.815
439.002
436.772
434.66
432.645
430.742
428.917
427.201
425.546
423.994
422.493
421.084
419.703
418.43
417.194
416.063
414.992
414.013
413.08
438.999
436.778
434.657
432.645
430.75
428.914
427.228
425.541
424.047
422.497
421.149
419.565
418.494
417.221
416.388
415.458
414.186
413.987
438.994
436.792
434.626
432.656
430.753
428.968
427.33
425.696
424.303
422.856
421.477
419.362
418.556
418.805
420.37
423.119
427.344
431.766
439.001
436.79
434.577
432.887
431.015
429.808
428.484
427.668
426.826
426.034
425.581
425.959
426.715
431.07
437.677
449.247
463.059
477.801
439.037
436.695
435.759
435.239
435.672
436.737
438.753
441.35
444.078
447.084
450.789
456.538
460.834
472.207
481.487
507.571
524.157
550.218
439.229
439.831
447.568
455.196
466.975
480.316
495.636
510.551
525.448
540.866
555.611
575.814
588.346
611.171
627.75
658.114
690.313
710.866
453.205
473.288
527.452
575.74
635.696
697.235
761.688
818.509
874.562
924.342
974.465
1023.67
1070.21
1118.16
1175.25
1219.37
1283.78
1321.42
578.24
778.129
1077.6
1341.17
1605.23
1873.52
2112.55
2320.36
2496.34
2647.42
2784.95
2905.24
3039.44
3172.6
3342.79
3504.64
3700.49
3860.61
1965.86
4160.26
6079.45
7386.94
8356.15
9001.89
9428.04
9717.05
9870.84
9965.14
9979.08
9966.63
9936.43
9892.34
9856.86
9850.38
9887.91
9927.16
18117.5
23472.2
25380.4
26339.8
26765.5
26755.1
26603
26389.6
26070.6
25742.7
25423
25122.2
24844.2
24591.9
24360.4
24155.7
23965
23798.1
11463.2
2514.24
2516.41
2518.61
2520.83
2523.07
2525.32
2527.6
2529.9
2532.22
2534.57
2536.93
2539.31
2541.72
2544.15
2546.6
2549.08
2551.57
2554.09
2556.64
2559.2
2561.79
2564.41
2567.05
2569.71
2572.4
2575.12
2577.86
2580.62
2583.41
2586.23
2589.08
2591.95
2594.85
2597.77
2600.73
2603.71
2606.72
2609.76
2612.82
2615.92
2619.05
2622.2
2625.39
2628.61
2631.86
2635.14
2638.45
2641.79
2645.17
2648.58
2652.02
2655.5
2659.01
2662.55
2666.13
3368.22
3305.53
3191.22
2680.8
3245.83
2688.35
2692.19
3302.87
3389.16
3489.78
3568.03
3644.21
3722.46
3792.5
3864.22
3931.37
3998.06
4062.25
4125.37
4186.73
4247.01
4305.82
4363.63
4420.12
4475.73
4530.11
4583.68
4636.07
4687.75
4738.29
4788.16
4836.92
4884.95
4931.9
4978
5023.19
5067.49
5110.85
5153.24
5194.6
5234.89
5274.06
5312.1
5349.04
5385.04
5420.46
5455.05
5488.76
5521.7
5553.8
5585.1
5615.53
5645.12
5673.81
5701.63
5728.51
5754.48
5779.5
5803.57
5826.67
5848.76
5869.87
5889.96
5909.06
5927.09
5944.08
5959.94
5974.73
5988.37
6000.95
6012.33
6022.62
6031.63
6039.3
6047.14
6053.87
6059.1
6062.99
6066.13
6068.65
6070.43
6071.01
6069.71
6067.42
6063.97
6059.54
6054.11
6047.75
6040.47
6032.35
6023.42
6013.69
6003.25
5992.06
5980.26
5967.76
5954.74
5941.08
5926.99
5912.36
5897.39
5882.03
5866.42
5850.51
5834.6
5818.69
5802.89
5787.26
5771.85
5756.7
5741.84
5727.35
5713.24
5699.58
5686.38
5673.69
5661.39
5649.4
5637.27
5624.41
5609.54
5590.43
5562.4
5450.32
11463.2
1993.32
996.635
810.947
691.425
611.37
615.943
615.674
607.223
586.885
563.676
540.419
518.971
501.252
488.667
480.161
477.79
478.835
497.13
532.912
607.678
701.845
807.659
915.06
1016.16
1096.75
1155.68
1170.28
1153.55
1104.01
1008.27
893.474
750.701
639.043
559.767
496.073
461.819
454.452
461.468
480.654
510.983
540.256
576.324
652.584
772.916
1011.47
1372.15
1698.14
1904.33
2023.08
2070.91
2079.8
2046.33
2007.84
1961.94
1899.25
1896.66
1824.22
1796.21
1703.27
1676.9
1634.45
1636.63
1662.27
1649.84
1644.66
1643.03
1642.44
1642.24
1646.25
1650.18
1655.25
1661
1667.22
1673.96
1680.97
1688.32
1695.83
1703.55
1711.37
1719.32
1727.31
1735.37
1743.44
1751.53
1759.59
1767.62
1775.6
1783.51
1791.3
1799.02
1806.62
1814.1
1821.41
1828.55
1835.54
1842.39
1849.19
1856.06
1863.25
1871.13
1880.36
1889.19
1897.76
1906.21
1914.37
1922.35
1930.08
1937.58
1944.85
1951.89
1958.69
1965.25
1971.56
1977.63
1983.46
1989.03
1994.36
1999.45
2004.28
2008.86
2013.17
2017.23
2021.03
2024.59
2027.89
2030.96
2033.78
2036.37
2038.76
2041.05
2043.04
2044.8
2046.36
2047.78
2049.01
2049.92
2050.31
2050.02
2049.13
2047.99
2046.63
2045.05
2043.27
2041.3
2039.17
2036.72
2034.31
2031.3
2028.72
2025.2
2022.5
2018.65
2015.66
2011.75
2008.36
2004.43
2000.75
1996.77
1992.87
1988.91
1984.94
1981.01
1977.08
1973.21
1969.38
1965.62
1961.93
1958.34
1954.85
1951.48
1948.26
1945.17
1942.26
1939.61
1937.28
1935.33
1934.27
1933.04
1942.38
11463.2
2005.93
804.524
614.041
643.531
661.173
640.678
591.189
533.872
478.897
429.622
388.312
355.576
329.741
309.644
294.248
282.917
275.195
270.247
271.285
278.406
292.621
320.033
358.306
408.418
464.267
525.549
575.871
615.961
628.193
619.211
592.569
540.54
478.35
417.493
373.564
368.198
378.036
402.691
448.048
529.889
645.524
808.393
1010.95
1195.31
1345
1481.61
1553.34
1567.5
1541.54
1487.33
1426.55
1363.92
1309.49
1259.67
1217.42
1187.4
1158
1136.04
1116.35
1104.44
1095.75
1092.04
1089.55
1087.53
1084.9
1085.24
1085.79
1087.71
1090.23
1093.1
1096.38
1099.96
1103.76
1107.78
1111.95
1116.25
1120.66
1125.16
1129.73
1134.35
1139.01
1143.7
1148.4
1153.11
1157.82
1162.51
1167.18
1171.82
1176.42
1180.96
1185.47
1189.94
1194.36
1198.74
1203.11
1207.48
1211.89
1216.39
1221.01
1225.79
1230.6
1235.25
1239.77
1244.18
1248.45
1252.59
1256.59
1260.44
1264.16
1267.74
1271.18
1274.47
1277.61
1280.61
1283.47
1286.17
1288.72
1291.13
1293.39
1295.49
1297.44
1299.24
1300.88
1302.38
1303.73
1304.94
1306
1306.93
1307.72
1308.4
1308.92
1309.31
1309.57
1309.7
1309.72
1309.43
1308.97
1308.28
1307.39
1306.39
1305.26
1304.02
1302.65
1301.18
1299.6
1297.89
1296.11
1294.16
1292.23
1290.06
1288
1285.65
1283.45
1281
1278.63
1276.11
1273.63
1271.05
1268.47
1265.86
1263.24
1260.63
1258.01
1255.41
1252.82
1250.26
1247.73
1245.25
1242.81
1240.44
1238.16
1235.97
1233.94
1232.13
1230.66
1229.68
1229.77
1231.25
1241.55
11463.2
2031.44
974.294
927.547
878.732
761.558
650.744
547.817
464.169
401.247
354.071
317.296
288.246
265.737
248.428
235.198
225.224
217.967
213.051
210.053
210.321
212.311
218.41
229.681
247.826
272.451
304.178
337.85
370.811
396.447
412.326
411.35
401.422
376.936
380.964
422.115
505.014
575.693
643.15
724.447
836.409
979.181
1094.35
1170.31
1235.69
1278.38
1289.72
1226.82
1193.13
1133.9
1084.65
1037.9
999.294
967.152
940.92
920.369
904.464
891.856
881.907
875.154
870.214
867.577
866.514
865.317
865.464
865.988
867.491
869.344
871.665
874.269
877.107
880.157
883.375
886.737
890.22
893.804
897.475
901.216
905.016
908.863
912.749
916.661
920.593
924.536
928.484
932.43
936.369
940.294
944.199
948.072
951.916
955.735
959.532
963.305
967.057
970.796
974.528
978.261
981.999
985.74
989.456
993.101
996.64
1000.08
1003.42
1006.66
1009.78
1012.8
1015.71
1018.51
1021.19
1023.76
1026.21
1028.54
1030.76
1032.85
1034.83
1036.68
1038.42
1040.03
1041.51
1042.87
1044.1
1045.21
1046.19
1047.05
1047.79
1048.41
1048.91
1049.29
1049.55
1049.69
1049.71
1049.61
1049.39
1049.04
1048.52
1047.86
1047.05
1046.12
1045.08
1043.93
1042.68
1041.33
1039.89
1038.35
1036.71
1035
1033.18
1031.31
1029.33
1027.32
1025.21
1023.08
1020.85
1018.61
1016.31
1013.98
1011.6
1009.2
1006.78
1004.34
1001.9
999.448
997
994.559
992.133
989.727
987.346
985.002
982.704
980.469
978.318
976.295
974.46
972.912
971.798
971.622
972.752
979.087
11463.2
2266.71
1400.26
1155.94
928.553
726.913
563.508
450.623
373.658
319.83
281.139
252.91
232.485
217.221
205.551
196.635
189.911
184.999
181.666
179.731
179.702
180.602
183.381
188.582
197.36
210.331
228.504
250.224
273.35
294.893
309.69
323.151
354.3
414.898
513.684
601.621
677.441
755.736
840.781
918.19
981.25
1036.49
1079.73
1099.98
1101.4
1053.98
1010.52
964.338
927.426
887.07
856.925
829.912
808.72
791.405
777.927
767.676
759.898
754.299
750.259
747.959
746.917
746.608
747.05
748.09
749.702
751.685
754.061
756.691
759.56
762.611
765.819
769.163
772.624
776.185
779.833
783.555
787.339
791.176
795.056
798.969
802.908
806.864
810.831
814.801
818.77
822.731
826.681
830.613
834.521
838.398
842.241
846.057
849.847
853.606
857.335
861.032
864.698
868.328
871.916
875.454
878.928
882.318
885.618
888.825
891.94
894.957
897.876
900.693
903.408
906.017
908.521
910.917
913.204
915.379
917.443
919.393
921.229
922.949
924.552
926.037
927.401
928.644
929.764
930.764
931.641
932.398
933.032
933.544
933.933
934.198
934.333
934.357
934.271
934.048
933.698
933.219
932.598
931.848
930.968
929.972
928.865
927.652
926.332
924.909
923.385
921.764
920.051
918.249
916.358
914.388
912.334
910.217
908.02
905.776
903.463
901.107
898.696
896.248
893.759
891.242
888.697
886.133
883.553
880.965
878.375
875.788
873.209
870.644
868.099
865.583
863.106
860.689
858.352
856.126
854.062
852.241
850.781
850.055
850.429
853.661
11463.2
2821.28
1687.74
1192.87
836.566
592.2
446.424
356.075
299.296
262.412
236.902
218.263
204.005
192.854
183.995
176.956
171.482
167.457
164.745
163.374
163.488
164.433
166.833
171.005
177.261
186.317
199.425
216.766
238.511
267.635
312.263
370.974
466.827
570.967
656.274
729.593
797.34
852.04
893.346
928.016
957.967
970.809
960.1
925.903
894.42
856.647
823.814
792.426
766.781
743.334
725.298
709.933
697.958
688.555
681.544
676.523
673.054
671.256
670.481
670.437
671.284
672.746
674.703
677.081
679.801
682.788
686.008
689.411
692.972
696.667
700.478
704.39
708.392
712.472
716.619
720.823
725.076
729.366
733.685
738.026
742.379
746.737
751.094
755.444
759.781
764.1
768.396
772.664
776.898
781.089
785.239
789.348
793.417
797.443
801.422
805.352
809.228
813.046
816.797
820.479
824.082
827.597
831.022
834.354
837.591
840.731
843.771
846.708
849.542
852.268
854.887
857.395
859.791
862.072
864.238
866.288
868.221
870.033
871.723
873.289
874.73
876.043
877.229
878.285
879.213
880.01
880.677
881.212
881.614
881.879
881.995
882.007
881.88
881.613
881.209
880.667
879.986
879.168
878.219
877.143
875.946
874.63
873.197
871.649
869.989
868.22
866.35
864.381
862.314
860.156
857.909
855.582
853.177
850.706
848.167
845.571
842.919
840.219
837.475
834.695
831.884
829.049
826.195
823.328
820.456
817.585
814.719
811.863
809.025
806.212
803.435
800.711
798.058
795.504
793.091
790.884
788.973
787.614
787.093
788.208
11463.2
3347.03
1750.95
1044.05
659.361
460.89
357.775
299.87
263.243
237.904
219.058
204.362
192.537
182.821
174.764
168.182
162.987
159.142
156.701
155.746
156.185
157.941
161.576
167.233
175.704
187.852
204.416
229.098
267.612
327.553
417.652
517.409
601.775
672.132
733.762
781.836
817.347
845.836
864.297
870.469
856.453
830.732
806.86
778.591
752.527
726.295
703.788
683.807
667.397
653.401
642.317
633.357
626.543
621.522
618.104
616.339
615.692
615.905
616.976
618.702
621.023
623.815
626.982
630.461
634.19
638.124
642.231
646.481
650.857
655.34
659.919
664.581
669.318
674.118
678.973
683.873
688.807
693.767
698.742
703.724
708.705
713.677
718.632
723.565
728.471
733.344
738.179
742.972
747.714
752.401
757.029
761.601
766.116
770.571
774.963
779.288
783.543
787.726
791.835
795.861
799.797
803.639
807.384
811.029
814.573
818.013
821.347
824.572
827.686
830.686
833.57
836.335
838.979
841.5
843.895
846.159
848.292
850.294
852.163
853.896
855.493
856.951
858.269
859.446
860.481
861.373
862.121
862.723
863.179
863.481
863.616
863.634
863.498
863.209
862.769
862.179
861.44
860.552
859.521
858.35
857.044
855.603
854.03
852.329
850.501
848.549
846.466
844.266
841.956
839.54
837.024
834.414
831.717
828.941
826.09
823.17
820.187
817.147
814.058
810.927
807.76
804.564
801.346
798.113
794.872
791.629
788.391
785.161
781.948
778.758
775.604
772.498
769.46
766.512
763.69
761.044
758.641
756.658
755.236
754.775
11463.2
3523.05
1576.71
828.699
520.191
381.549
310.242
268.714
241.903
223.2
209.093
197.605
187.654
178.979
171.57
165.482
160.821
157.808
156.474
156.713
158.434
162.084
168.342
177.668
192.828
216.582
251.048
304.576
382.153
467.377
541.096
604.202
660.163
706.881
743.119
772.3
787.015
790.292
777.471
758.16
738.416
716.955
696.804
676.276
657.316
639.695
624.67
611.786
601.148
592.381
585.52
580.33
576.691
574.657
573.887
573.999
575.09
576.934
579.452
582.53
586.078
590.017
594.272
598.79
603.523
608.437
613.502
618.697
624.005
629.41
634.901
640.466
646.095
651.779
657.506
663.267
669.049
674.842
680.636
686.419
692.184
697.922
703.625
709.287
714.903
720.469
725.978
731.425
736.803
742.105
747.329
752.476
757.548
762.541
767.45
772.275
777.014
781.667
786.228
790.689
795.046
799.296
803.436
807.464
811.379
815.177
818.858
822.419
825.856
829.167
832.351
835.403
838.322
841.105
843.749
846.254
848.617
850.836
852.908
854.83
856.601
858.218
859.679
860.984
862.131
863.118
863.944
864.608
865.109
865.437
865.577
865.58
865.414
865.078
864.574
863.903
863.066
862.066
860.905
859.587
858.114
856.49
854.718
852.799
850.739
848.539
846.206
843.744
841.159
838.456
835.64
832.718
829.699
826.589
823.395
820.122
816.778
813.371
809.909
806.399
802.85
799.267
795.659
792.033
788.397
784.757
781.12
777.492
773.879
770.291
766.737
763.232
759.79
756.435
753.194
750.107
747.223
744.652
742.436
740.667
11463.2
3412.97
1305.56
668.359
441.019
342.563
290.3
258.617
237.216
221.023
208.184
197.581
188.644
181.043
174.737
169.892
166.729
165.434
166.148
169.176
174.645
183.951
198.478
219.473
253.357
302.267
364.298
429.713
489.553
543.804
591.731
633.682
669.073
699.412
716.983
721.642
713.439
699.65
683.278
666.374
650.292
634.557
619.577
605.02
591.647
579.666
569.437
560.819
553.852
548.406
544.416
541.875
540.727
540.534
541.409
543.111
545.609
548.783
552.543
556.805
561.493
566.541
571.888
577.487
583.295
589.283
595.423
601.696
608.081
614.562
621.123
627.751
634.433
641.154
647.91
654.686
661.464
668.234
674.983
681.701
688.378
695.005
701.575
708.08
714.512
720.862
727.127
733.309
739.404
745.402
751.302
757.105
762.812
768.42
773.925
779.325
784.618
789.798
794.864
799.813
804.643
809.35
813.933
818.389
822.717
826.915
830.982
834.915
838.711
842.367
845.881
849.249
852.469
855.539
858.456
861.217
863.821
866.265
868.544
870.658
872.601
874.375
875.974
877.399
878.647
879.717
880.606
881.315
881.84
882.169
882.299
882.261
882.036
881.623
881.022
880.235
879.263
878.108
876.773
875.261
873.576
871.72
869.696
867.509
865.161
862.658
860.005
857.207
854.271
851.202
848.007
844.692
841.267
837.74
834.117
830.407
826.618
822.758
818.838
814.866
810.849
806.797
802.716
798.614
794.501
790.384
786.268
782.161
778.071
774.007
769.981
766.003
762.089
758.258
754.535
750.95
747.538
744.395
741.514
738.716
11463.2
3025.02
1055.81
562.552
395.024
319.998
280.111
254.939
237.319
224.472
214.246
205.662
198.392
192.507
188.177
186.111
186.278
189.588
195.877
205.916
220.547
242.093
271.819
310.776
355.821
403.382
450.237
494.032
533.889
569.893
601.374
629.481
650.242
658.177
656.769
648.273
636.282
623.152
610.198
597.917
586.289
574.997
564.08
553.66
544.167
535.827
528.827
523.153
518.794
515.69
513.988
513.414
513.806
515.171
517.425
520.475
524.242
528.644
533.603
539.049
544.918
551.154
557.702
564.512
571.544
578.765
586.148
593.683
601.34
609.088
616.91
624.788
632.699
640.616
648.498
656.347
664.183
671.998
679.777
687.507
695.176
702.776
710.299
717.737
725.085
732.338
739.494
746.536
753.456
760.243
766.897
773.42
779.816
786.082
792.215
798.214
804.076
809.8
815.389
820.84
826.152
831.323
836.352
841.236
845.976
850.568
855.012
859.307
863.448
867.433
871.26
874.924
878.423
881.755
884.918
887.908
890.723
893.359
895.814
898.083
900.164
902.055
903.753
905.257
906.564
907.673
908.581
909.288
909.791
910.073
910.146
910.018
909.684
909.142
908.392
907.435
906.272
904.906
903.341
901.578
899.62
897.473
895.138
892.621
889.926
887.058
884.024
880.829
877.48
873.983
870.346
866.577
862.685
858.678
854.567
850.358
846.063
841.692
837.256
832.763
828.224
823.645
819.035
814.403
809.758
805.108
800.46
795.822
791.203
786.614
782.065
777.567
773.135
768.786
764.539
760.419
756.452
752.708
749.162
745.406
11463.2
2559.59
887.166
510.053
376.458
314.437
279.986
259.422
245.785
235.803
227.968
221.781
217.183
214.942
214.965
218.401
225.423
235.521
248.499
266.253
289.781
318.459
350.94
385.493
420.284
454.172
486.315
515.969
542.643
567.226
588.752
599.846
602.511
599.683
593.01
583.893
574.163
564.682
555.705
547.147
538.831
530.648
522.705
515.226
508.528
502.811
498.187
494.681
492.373
491.323
491.189
492.129
493.988
496.752
500.357
504.737
509.818
515.528
521.797
528.564
535.776
543.403
551.377
559.637
568.138
576.835
585.673
594.564
603.541
612.621
621.788
631.019
640.285
649.557
658.822
668.057
677.232
686.344
695.367
704.287
713.099
721.796
730.375
738.828
747.149
755.331
763.362
771.238
778.953
786.499
793.874
801.083
808.132
815.02
821.746
828.307
834.704
840.939
847.011
852.924
858.675
864.264
869.689
874.949
880.043
884.972
889.734
894.327
898.75
902.999
907.071
910.962
914.671
918.195
921.531
924.676
927.628
930.383
932.937
935.287
937.429
939.361
941.08
942.586
943.875
944.945
945.795
946.422
946.823
946.985
946.92
946.629
946.111
945.365
944.39
943.188
941.76
940.109
938.238
936.15
933.849
931.338
928.622
925.704
922.592
919.29
915.805
912.144
908.316
904.327
900.184
895.897
891.475
886.927
882.265
877.499
872.641
867.702
862.695
857.628
852.512
847.354
842.164
836.95
831.722
826.488
821.258
816.04
810.846
805.685
800.569
795.509
790.517
785.609
780.801
776.113
771.564
767.21
763.024
758.395
11463.2
2118.82
782.636
478.272
366.958
314.231
286.514
270.241
259.771
252.588
247.613
244.862
244.241
246.323
251.496
260.001
271.386
285.244
302.593
323.206
346.42
371.328
396.995
422.592
447.558
471.181
493.184
514.076
533.216
546.264
551.606
552.532
550.736
546.11
540.106
533.558
527.082
520.833
514.768
508.771
502.781
496.853
491.161
485.937
481.417
477.77
475.083
473.577
473.09
473.602
475.103
477.572
480.96
485.23
490.339
496.277
502.939
510.244
518.124
526.509
535.309
544.383
553.786
563.533
573.589
583.914
594.464
605.229
616.145
627.152
638.208
649.29
660.356
671.344
682.218
692.945
703.502
713.866
724.048
734.06
743.912
753.61
763.155
772.541
781.762
790.806
799.66
808.317
816.767
825.002
833.024
840.84
848.458
855.88
863.104
870.131
876.963
883.601
890.049
896.311
902.387
908.276
913.978
919.493
924.82
929.961
934.915
939.681
944.258
948.644
952.834
956.825
960.616
964.203
967.585
970.758
973.721
976.468
978.997
981.303
983.382
985.231
986.85
988.237
989.388
990.301
990.976
991.408
991.595
991.528
991.215
990.653
989.846
988.792
987.491
985.944
984.153
982.122
979.853
977.349
974.614
971.652
968.468
965.068
961.456
957.641
953.629
949.429
945.048
940.495
935.778
930.907
925.891
920.739
915.465
910.083
904.605
899.045
893.413
887.72
881.977
876.191
870.371
864.528
858.669
852.805
846.947
841.105
835.293
829.52
823.798
818.136
812.546
807.043
801.639
796.352
791.197
786.221
781.409
775.968
11463.2
1945.83
760.585
473.64
368.887
322.108
298.294
285.007
277.107
272.599
270.778
270.857
273.633
278.898
286.796
297.136
309.661
324.374
340.912
358.833
377.744
396.977
415.917
434.099
451.719
468.962
485.056
497.758
504.937
508.213
509.385
508.873
506.636
503.336
499.569
495.617
491.632
487.607
483.521
479.362
475.191
471.135
467.389
464.158
461.618
460.031
459.422
459.759
461.163
463.684
467.176
471.603
476.919
483.076
489.978
497.441
505.609
514.493
524.043
534.207
544.931
556.217
567.978
580.156
592.702
605.566
618.67
631.947
645.338
658.712
671.992
685.117
698.03
710.696
723.074
735.14
746.879
758.296
769.416
780.281
790.937
801.41
811.708
821.833
831.771
841.5
851
860.253
869.249
877.982
886.456
894.682
902.67
910.424
917.944
925.231
932.288
939.119
945.733
952.131
958.319
964.296
970.064
975.62
980.968
986.109
991.044
995.775
1000.3
1004.61
1008.72
1012.61
1016.28
1019.73
1022.96
1025.97
1028.75
1031.3
1033.62
1035.7
1037.53
1039.12
1040.47
1041.56
1042.41
1043
1043.34
1043.41
1043.24
1042.78
1042.07
1041.1
1039.86
1038.36
1036.6
1034.58
1032.3
1029.77
1026.99
1023.95
1020.68
1017.16
1013.4
1009.42
1005.22
1000.8
996.173
991.348
986.334
981.141
975.776
970.251
964.574
958.753
952.807
946.753
940.602
934.369
928.063
921.695
915.277
908.816
902.323
895.806
889.273
882.736
876.21
869.707
863.24
856.82
850.456
844.159
837.939
831.807
825.777
819.865
814.084
808.473
803.044
796.832
11463.2
1880.32
734.379
469.862
375.527
333.467
312.629
301.508
295.607
293.089
292.69
294.84
299.225
305.735
314.128
324.16
335.6
348.205
361.686
375.674
389.791
403.627
417.412
431.261
444.201
454.779
462.302
467.518
471.147
472.923
473.586
473.585
472.685
471.257
469.518
467.549
465.411
463.123
460.736
458.324
456.022
454.011
452.602
451.96
451.97
452.884
454.752
457.56
461.205
465.522
470.8
477.085
484.358
492.59
501.748
511.882
522.902
534.783
547.449
560.831
574.869
589.514
604.666
620.24
636.18
652.463
668.896
685.255
701.361
717.154
732.576
747.62
762.225
776.306
789.822
802.76
815.126
826.945
838.304
849.316
860.122
870.775
881.288
891.667
901.877
911.872
921.613
931.06
940.194
949.026
957.564
965.817
973.798
981.509
988.953
996.132
1003.05
1009.71
1016.13
1022.31
1028.26
1033.98
1039.47
1044.73
1049.77
1054.58
1059.18
1063.55
1067.71
1071.65
1075.37
1078.86
1082.12
1085.16
1087.96
1090.52
1092.85
1094.94
1096.79
1098.39
1099.73
1100.81
1101.64
1102.22
1102.52
1102.56
1102.36
1101.87
1101.11
1100.08
1098.78
1097.21
1095.36
1093.25
1090.86
1088.21
1085.29
1082.1
1078.66
1074.96
1071.01
1066.81
1062.37
1057.69
1052.79
1047.66
1042.32
1036.78
1031.04
1025.13
1019.03
1012.78
1006.38
999.822
993.148
986.368
979.495
972.539
965.512
958.424
951.286
944.107
936.899
929.67
922.423
915.178
907.951
900.756
893.605
886.509
879.475
872.514
865.636
858.851
852.171
845.613
839.187
832.924
826.877
819.927
11463.2
1843.44
731.953
476.345
386.743
347.302
327.926
317.64
312.408
310.398
310.303
312.955
317.492
323.684
331.147
339.595
348.847
358.69
368.914
379.262
389.785
400.562
410.441
418.758
425.723
431.553
436.524
440.457
443.595
445.971
447.815
449.228
450.248
451.056
451.603
451.903
452.045
452.112
452.153
452.279
452.592
453.146
453.861
455.128
457.195
460.285
464.542
470.152
476.994
485.066
494.279
504.642
516.144
528.741
542.4
557.113
572.822
589.595
607.214
625.522
644.405
663.742
683.407
703.265
723.169
742.923
762.438
781.517
800.034
817.878
834.968
851.237
866.571
880.934
894.356
906.877
918.509
929.266
939.374
949.066
958.758
968.504
978.242
988.019
997.718
1007.24
1016.5
1025.49
1034.17
1042.56
1050.62
1058.38
1065.83
1072.99
1079.85
1086.42
1092.7
1098.7
1104.43
1109.91
1115.14
1120.13
1124.88
1129.38
1133.65
1137.69
1141.5
1145.08
1148.45
1151.59
1154.51
1157.2
1159.66
1161.89
1163.88
1165.63
1167.14
1168.4
1169.44
1170.21
1170.72
1170.96
1170.94
1170.7
1170.15
1169.34
1168.27
1166.94
1165.33
1163.45
1161.3
1158.87
1156.18
1153.21
1149.96
1146.45
1142.68
1138.64
1134.35
1129.79
1124.99
1119.94
1114.65
1109.12
1103.36
1097.39
1091.2
1084.81
1078.23
1071.47
1064.54
1057.45
1050.23
1042.89
1035.44
1027.89
1020.25
1012.52
1004.73
996.881
988.983
981.048
973.087
965.113
957.122
949.144
941.195
933.288
925.432
917.638
909.913
902.268
894.712
887.249
879.898
872.676
865.593
858.666
852.002
844.347
11463.7
1817.38
730.564
485.006
397.939
359.659
341.119
330.868
325.356
323.108
322.789
324.936
328.674
333.736
339.707
346.408
353.719
361.5
369.664
377.678
385.45
392.69
399.678
406.371
412.676
418.607
424.23
429.471
434.382
438.9
443.043
446.751
449.977
452.548
454.788
456.904
459.024
461.233
463.648
466.387
469.584
473.38
478.011
483.611
490.297
498.25
507.722
518.958
531.592
545.532
560.714
577.162
594.982
613.993
634.003
654.89
676.498
698.603
721.144
744.024
767.095
790.213
813.224
835.982
858.328
880.109
901.187
921.518
941.018
959.6
977.151
993.502
1008.4
1022.05
1034.62
1046.24
1056.97
1066.87
1076.02
1084.56
1092.69
1100.61
1108.55
1116.96
1125.38
1133.62
1141.61
1149.31
1156.75
1163.87
1170.66
1177.12
1183.28
1189.12
1194.65
1199.86
1204.76
1209.37
1213.71
1217.79
1221.62
1225.21
1228.56
1231.66
1234.52
1237.16
1239.58
1241.79
1243.78
1245.56
1247.13
1248.48
1249.61
1250.51
1251.18
1251.63
1251.84
1251.81
1251.59
1251.1
1250.34
1249.33
1248.08
1246.58
1244.82
1242.81
1240.55
1238.03
1235.26
1232.23
1228.93
1225.38
1221.57
1217.49
1213.16
1208.57
1203.73
1198.64
1193.31
1187.73
1181.91
1175.86
1169.58
1163.07
1156.34
1149.41
1142.27
1134.95
1127.44
1119.76
1111.92
1103.93
1095.81
1087.6
1079.28
1070.87
1062.37
1053.8
1045.16
1036.46
1027.72
1018.96
1010.17
1001.38
992.613
983.881
975.189
966.545
957.958
949.437
940.991
932.631
924.368
916.203
908.161
900.259
892.505
884.901
877.61
869.281
11462.8
1804.61
734.832
491.834
406.073
368.355
350.124
339.7
334.013
331.589
331.103
332.842
336.109
340.691
346.282
352.625
359.535
366.8
374.272
382.094
390.129
397.966
405.757
413.485
421.144
428.707
436.198
443.561
450.816
457.849
464.652
471.219
477.639
484.063
490.597
497.289
504.274
511.672
519.627
528.277
537.784
548.326
560.072
573.079
587.386
603.034
620.018
638.079
657.341
677.819
699.443
722.202
745.857
770.21
795.133
820.483
846.073
871.715
897.239
922.505
947.349
971.66
995.305
1018.18
1040.2
1061.23
1081.23
1100.14
1117.95
1134.62
1150.13
1164.47
1177.69
1189.63
1200.62
1210.77
1220.2
1228.94
1236.98
1244.39
1251.09
1257.3
1263.77
1270.19
1276.38
1282.24
1287.77
1292.98
1297.88
1302.48
1306.78
1310.8
1314.54
1318
1321.17
1324.04
1326.65
1329.03
1331.18
1333.11
1334.82
1336.33
1337.63
1338.73
1339.62
1340.32
1340.84
1341.18
1341.35
1341.31
1341.14
1340.76
1340.18
1339.41
1338.44
1337.27
1335.91
1334.33
1332.56
1330.56
1328.33
1325.88
1323.2
1320.31
1317.19
1313.85
1310.28
1306.48
1302.46
1298.21
1293.72
1289.01
1284.05
1278.87
1273.45
1267.81
1261.94
1255.85
1249.53
1243
1236.25
1229.28
1222.11
1214.73
1207.15
1199.38
1191.42
1183.29
1175
1166.54
1157.94
1149.19
1140.3
1131.31
1122.21
1113.01
1103.72
1094.36
1084.94
1075.46
1065.94
1056.4
1046.84
1037.27
1027.75
1018.27
1008.83
999.444
990.112
980.85
971.668
962.579
953.595
944.744
936.032
927.471
919.063
910.804
902.899
893.961
11461.8
1794.45
738.531
495.009
411.436
374.602
357.187
347.339
342.599
340.994
341.301
344.003
348.298
353.922
360.672
368.746
377.744
386.967
396.889
407.774
419.523
431.431
443.747
456.488
469.636
483.076
496.744
510.505
524.288
538.037
551.811
565.625
579.573
593.761
608.275
623.132
638.454
654.365
671.018
688.565
707.226
727.254
748.611
771.242
795.052
819.899
845.596
871.971
899.445
927.609
956.036
984.337
1012.14
1039.41
1066.1
1092.08
1117.24
1141.45
1164.7
1186.93
1208.12
1228.21
1247.21
1265.08
1281.77
1297.3
1311.61
1324.73
1336.64
1347.41
1356.99
1365.56
1373.58
1381.03
1387.81
1393.87
1399.22
1403.74
1407.69
1411.39
1415.12
1419.07
1422.84
1425.87
1428.34
1430.41
1432.16
1433.67
1434.98
1436.1
1437.04
1437.8
1438.36
1438.73
1438.9
1438.82
1438.62
1438.35
1437.89
1437.29
1436.56
1435.68
1434.67
1433.52
1432.24
1430.84
1429.31
1427.67
1425.91
1424.02
1422
1419.83
1417.51
1415.05
1412.43