/*--------------------------------*- C++ -*----------------------------------*\
  =========                 |
  \\      /  F ield         | OpenFOAM: The Open Source CFD Toolbox
   \\    /   O peration     | Website:  https://openfoam.org
    \\  /    A nd           | Version:  13
     \\/     M anipulation  |
\*---------------------------------------------------------------------------*/
FoamFile
{
    format      ascii;
    class       volScalarField;
    location    "700";
    object      p;
}
// * * * * * * * * * * * * * * * * * * * * * * * * * * * * * * * * * * * * * //

dimensions      [0 2 -2 0 0 0 0];

internalField   nonuniform List<scalar> 
12225
(
-4.38234
-5.24713
-5.67389
-5.77742
-5.8682
-6.05729
-6.2477
-6.40353
-6.52074
-6.60769
-6.67508
-6.72883
-6.77627
-6.8252
-6.87985
-6.94695
-7.02459
-7.11926
-4.6542
-5.27749
-5.64044
-5.74465
-5.85821
-6.03509
-6.21028
-6.36047
-6.47572
-6.56548
-6.64011
-6.7014
-6.75325
-6.8053
-6.8632
-6.92384
-6.98754
-7.0395
-4.84835
-5.28941
-5.59713
-5.747
-5.89484
-6.05884
-6.21586
-6.35023
-6.46085
-6.55168
-6.62759
-6.69063
-6.74548
-6.79928
-6.85531
-6.91127
-6.96591
-7.00861
-4.97218
-5.30088
-5.58137
-5.76337
-5.91366
-6.06085
-6.20371
-6.32581
-6.43407
-6.52628
-6.60398
-6.66978
-6.72784
-6.78331
-6.83891
-6.89326
-6.94474
-6.9862
-5.09183
-5.33981
-5.6028
-5.78507
-5.92553
-6.06021
-6.19439
-6.31384
-6.42018
-6.51179
-6.58972
-6.65655
-6.71596
-6.77185
-6.82649
-6.87886
-6.92733
-6.96745
-5.20922
-5.39703
-5.62806
-5.79728
-5.93097
-6.05897
-6.1871
-6.30362
-6.40618
-6.4953
-6.57214
-6.63894
-6.69888
-6.75491
-6.80864
-6.85929
-6.90554
-6.94448
-5.31561
-5.45587
-5.65188
-5.81132
-5.94107
-6.06409
-6.18622
-6.29808
-6.39666
-6.48321
-6.55894
-6.62572
-6.68601
-6.74197
-6.7947
-6.84366
-6.88799
-6.92587
-5.41009
-5.51383
-5.68112
-5.83072
-5.95535
-6.0728
-6.18813
-6.29449
-6.38903
-6.4727
-6.54686
-6.61292
-6.67261
-6.72759
-6.77869
-6.82563
-6.86793
-6.90444
-5.49308
-5.57185
-5.7147
-5.85239
-5.9706
-6.08192
-6.19041
-6.29132
-6.38186
-6.46271
-6.53505
-6.5999
-6.65858
-6.71235
-6.76191
-6.80725
-6.8481
-6.88384
-5.56711
-5.62873
-5.74923
-5.87407
-5.98523
-6.0902
-6.19224
-6.28791
-6.37461
-6.45266
-6.52298
-6.58636
-6.64382
-6.69635
-6.74456
-6.78855
-6.82827
-6.86323
-5.63406
-5.68258
-5.78352
-5.89549
-5.99918
-6.09775
-6.19361
-6.28416
-6.36707
-6.44226
-6.51043
-6.57222
-6.62839
-6.67972
-6.72671
-6.76954
-6.80823
-6.84254
-5.68955
-5.72914
-5.81488
-5.91538
-6.01188
-6.10447
-6.19474
-6.28061
-6.35997
-6.43249
-6.49863
-6.5589
-6.61385
-6.66409
-6.71002
-6.75187
-6.78973
-6.82343
-5.73953
-5.77243
-5.84539
-5.93515
-6.02446
-6.11115
-6.19596
-6.27725
-6.3531
-6.42296
-6.48707
-6.54574
-6.59944
-6.64855
-6.69347
-6.73439
-6.77146
-6.80467
-5.79045
-5.81767
-5.87872
-5.95739
-6.03871
-6.11885
-6.19771
-6.27395
-6.34585
-6.41266
-6.47434
-6.53112
-6.58325
-6.63107
-6.67484
-6.71476
-6.75106
-6.78369
-5.84041
-5.86276
-5.91335
-5.98124
-6.0541
-6.1273
-6.19992
-6.27078
-6.33833
-6.40169
-6.46063
-6.51518
-6.56551
-6.61184
-6.65435
-6.69325
-6.72873
-6.76086
-5.88648
-5.90488
-5.94682
-6.00492
-6.06947
-6.13568
-6.20209
-6.26747
-6.33049
-6.39016
-6.44611
-6.49823
-6.5466
-6.59131
-6.63251
-6.67036
-6.70502
-6.73663
-5.92463
-5.94
-5.97533
-6.02541
-6.08258
-6.14238
-6.20303
-6.2633
-6.32195
-6.37801
-6.43098
-6.48066
-6.52702
-6.5701
-6.60998
-6.64678
-6.68067
-6.71175
-5.94884
-5.96226
-5.99328
-6.03792
-6.08972
-6.14463
-6.20078
-6.25698
-6.31205
-6.36506
-6.41546
-6.46299
-6.50756
-6.54915
-6.58784
-6.62371
-6.6569
-6.68753
-5.94959
-5.96244
-5.99223
-6.03516
-6.08498
-6.13778
-6.19182
-6.246
-6.29917
-6.35045
-6.39929
-6.44544
-6.48881
-6.52941
-6.56729
-6.60254
-6.6353
-6.66571
-5.91863
-5.93317
-5.96647
-6.01325
-6.06612
-6.12099
-6.17665
-6.232
-6.28605
-6.33773
-6.38675
-6.43284
-6.4761
-6.51647
-6.55415
-6.5892
-6.62181
-6.65215
-5.87328
-5.89089
-5.9307
-5.98469
-6.04311
-6.10216
-6.16117
-6.21949
-6.27565
-6.32889
-6.37884
-6.42561
-6.46921
-6.50983
-6.54756
-6.58265
-6.61519
-6.64547
-5.81464
-5.83752
-5.88789
-5.95223
-6.01797
-6.08236
-6.14616
-6.20845
-6.2676
-6.32284
-6.3742
-6.42188
-6.46605
-6.50696
-6.54485
-6.58
-6.61258
-6.64291
-5.74478
-5.77622
-5.84204
-5.91932
-5.99286
-6.06323
-6.13269
-6.19965
-6.26199
-6.31935
-6.37226
-6.42103
-6.46586
-6.50701
-6.54491
-6.57983
-6.61213
-6.64213
-5.66445
-5.70968
-5.7971
-5.88862
-5.9692
-6.04569
-6.12159
-6.19363
-6.25913
-6.31833
-6.37248
-6.42217
-6.46768
-6.50929
-6.54733
-6.5822
-6.6142
-6.64391
-5.57348
-5.64043
-5.75636
-5.86189
-5.9476
-6.02997
-6.11254
-6.18967
-6.25856
-6.32001
-6.37529
-6.42534
-6.47094
-6.51265
-6.5507
-6.58532
-6.6169
-6.64592
-5.47179
-5.57089
-5.72191
-5.83953
-5.92889
-6.0168
-6.10522
-6.18596
-6.25742
-6.32177
-6.37917
-6.43018
-6.47613
-6.51805
-6.55631
-6.59113
-6.62287
-6.65237
-5.3596
-5.50578
-5.69145
-5.8158
-5.9102
-6.00635
-6.10103
-6.1845
-6.25678
-6.32243
-6.38124
-6.43316
-6.47923
-6.52069
-6.5582
-6.59232
-6.62357
-6.65312
-5.22751
-5.46213
-5.67068
-5.78755
-5.88671
-5.99528
-6.09886
-6.18795
-6.2641
-6.33158
-6.39222
-6.44609
-6.49329
-6.53453
-6.57085
-6.60351
-6.63358
-6.66339
-5.02918
-5.43588
-5.67514
-5.77343
-5.86863
-5.98286
-6.09025
-6.18121
-6.25924
-6.32736
-6.38901
-6.44456
-6.49288
-6.53381
-6.56839
-6.59828
-6.62542
-6.65126
-4.76847
-5.36569
-5.67091
-5.78083
-5.88457
-6.00726
-6.11962
-6.21194
-6.28953
-6.35724
-6.41853
-6.47385
-6.52157
-6.56096
-6.59276
-6.61829
-6.6403
-6.65864
-7.58438
-7.5845
-7.58454
-7.58448
-7.58417
-7.58307
-7.58074
-7.57757
-7.57447
-7.57233
-7.57218
-7.57433
-7.57838
-7.58366
-7.58941
-7.595
-7.59984
-7.60353
-7.60592
-7.60729
-7.60786
-7.60783
-7.60737
-7.60671
-7.60608
-7.60559
-7.60525
-7.60498
-7.6047
-7.60432
-7.60382
-7.60318
-7.60241
-7.60141
-7.60015
-7.59873
-7.59753
-7.59709
-7.59778
-7.59936
-7.6012
-7.60275
-7.604
-7.60532
-7.60708
-7.60967
-7.61328
-7.61714
-7.62032
-7.6231
-7.62828
-7.64029
-7.6622
-7.69326
-7.73213
-7.77938
-7.83588
-7.90055
-7.97095
-8.04524
-8.12093
-8.19626
-8.26948
-8.33948
-8.40542
-8.46665
-8.52267
-8.57349
-8.61902
-8.65938
-8.69459
-8.72479
-8.75004
-8.77042
-8.78599
-8.79678
-8.80286
-8.80423
-8.80097
-8.793
-8.78044
-8.76319
-8.74138
-8.71485
-8.68376
-8.64798
-8.6077
-8.56286
-8.51355
-8.45967
-8.40104
-8.33768
-8.26965
-8.19701
-8.11977
-8.03792
-7.95147
-7.86038
-7.76462
-7.66421
-7.55925
-7.44974
-7.33545
-7.21617
-7.09197
-6.9629
-6.82895
-6.6901
-6.54631
-6.39755
-6.2438
-6.08505
-5.92129
-5.75254
-5.57879
-5.40008
-5.2164
-5.02779
-4.83428
-4.63598
-4.43299
-4.22538
-4.0132
-3.79653
-3.57543
-3.35008
-3.12057
-2.88711
-2.64983
-2.40894
-2.1646
-1.91704
-1.66647
-1.41315
-1.15731
-0.899233
-0.63925
-0.377693
-0.114631
0.149822
0.415292
0.681408
0.94787
1.21437
1.48064
1.74637
2.01129
2.27513
2.53762
2.79849
3.05749
3.31439
3.56895
3.82095
4.07019
4.31647
4.55961
4.79947
5.0359
5.26879
5.49805
5.7236
5.94539
6.16337
6.3775
6.58774
6.79407
6.99647
7.19492
7.38941
7.57994
7.7665
7.9491
8.12774
8.30241
8.47317
8.64021
8.80352
8.96621
9.11919
-7.58552
-7.58569
-7.58602
-7.58638
-7.58638
-7.58564
-7.58385
-7.58146
-7.57962
-7.5793
-7.58085
-7.58421
-7.58892
-7.59439
-7.60001
-7.6053
-7.60984
-7.61344
-7.61588
-7.617
-7.61681
-7.61558
-7.61366
-7.61147
-7.60937
-7.60763
-7.60632
-7.60536
-7.60456
-7.60384
-7.60317
-7.60252
-7.60185
-7.60104
-7.60004
-7.59901
-7.59848
-7.59894
-7.60047
-7.60252
-7.60427
-7.60508
-7.60509
-7.60477
-7.60395
-7.603
-7.60371
-7.60852
-7.61589
-7.62247
-7.63047
-7.64323
-7.66184
-7.68868
-7.72705
-7.77847
-7.84051
-7.91001
-7.98449
-8.06136
-8.13837
-8.2138
-8.28625
-8.35486
-8.41851
-8.47695
-8.53039
-8.57882
-8.62228
-8.66085
-8.6946
-8.72361
-8.74793
-8.7676
-8.78264
-8.79306
-8.79891
-8.80016
-8.79684
-8.78891
-8.77644
-8.75936
-8.73772
-8.71145
-8.68063
-8.6452
-8.60525
-8.56079
-8.51187
-8.45838
-8.4002
-8.33733
-8.26984
-8.19778
-8.12116
-8.03997
-7.95419
-7.8638
-7.76875
-7.66897
-7.56439
-7.45493
-7.34071
-7.22187
-7.09835
-6.97003
-6.83687
-6.69882
-6.55584
-6.40789
-6.25497
-6.09705
-5.93414
-5.76624
-5.59336
-5.4155
-5.2327
-5.04495
-4.85232
-4.6549
-4.45279
-4.24604
-4.03472
-3.81888
-3.59863
-3.37408
-3.14539
-2.91271
-2.67621
-2.43605
-2.19242
-1.94553
-1.69558
-1.44282
-1.18745
-0.929686
-0.669744
-0.407927
-0.144719
0.119534
0.384715
0.65057
0.916812
1.18314
1.44928
1.71494
1.97983
2.24368
2.50623
2.76719
3.02634
3.28341
3.53818
3.79043
4.03996
4.28655
4.53004
4.77027
5.00709
5.24039
5.47007
5.69605
5.91827
6.13669
6.35125
6.56193
6.76871
6.97155
7.17045
7.36539
7.55638
7.74342
7.92652
8.10572
8.28108
8.45263
8.62071
8.78467
8.94972
9.10213
-7.58676
-7.58677
-7.58681
-7.58689
-7.58696
-7.58694
-7.58702
-7.58772
-7.58952
-7.59262
-7.59687
-7.60196
-7.60748
-7.61304
-7.61825
-7.62282
-7.62652
-7.62924
-7.63088
-7.63141
-7.6308
-7.62916
-7.62662
-7.62336
-7.61959
-7.61555
-7.6115
-7.60771
-7.6044
-7.60169
-7.59957
-7.59786
-7.59633
-7.59492
-7.59394
-7.59388
-7.59524
-7.59806
-7.60157
-7.6044
-7.60511
-7.60331
-7.6005
-7.59876
-7.59885
-7.59976
-7.60217
-7.60915
-7.62106
-7.63722
-7.65853
-7.68573
-7.71924
-7.75976
-7.80787
-7.86319
-7.92407
-7.98879
-8.05579
-8.12354
-8.19071
-8.2563
-8.31949
-8.37974
-8.43643
-8.48924
-8.53802
-8.58266
-8.62308
-8.65923
-8.69108
-8.7186
-8.74178
-8.76058
-8.77499
-8.78497
-8.79052
-8.7916
-8.78821
-8.78031
-8.76792
-8.75101
-8.72958
-8.7036
-8.67309
-8.63803
-8.59848
-8.55445
-8.50597
-8.45296
-8.39527
-8.33295
-8.26604
-8.19458
-8.11857
-8.03801
-7.95288
-7.86316
-7.76883
-7.66987
-7.5662
-7.45778
-7.34461
-7.22676
-7.10419
-6.97686
-6.84471
-6.70768
-6.56575
-6.41887
-6.26703
-6.1102
-5.9484
-5.7816
-5.60985
-5.43313
-5.25146
-5.06486
-4.8734
-4.67714
-4.4762
-4.2706
-4.06041
-3.84569
-3.62655
-3.40309
-3.17548
-2.94385
-2.70838
-2.46922
-2.22656
-1.9806
-1.73156
-1.47965
-1.22512
-0.968172
-0.70905
-0.448021
-0.185488
0.0782249
0.34291
0.60832
0.874164
1.14016
1.40602
1.67146
1.93618
2.19993
2.46241
2.72337
2.98255
3.23971
3.49461
3.74703
3.99676
4.2436
4.48737
4.7279
4.96504
5.19869
5.42872
5.65505
5.87763
6.0964
6.3113
6.52232
6.72942
6.93258
7.13178
7.32701
7.51829
7.7056
7.88897
8.06841
8.244
8.41582
8.58447
8.74871
8.91637
9.0644
-7.58782
-7.58758
-7.58725
-7.58722
-7.58815
-7.59051
-7.59421
-7.59893
-7.60434
-7.61016
-7.61609
-7.62192
-7.62743
-7.63244
-7.63677
-7.64029
-7.64289
-7.64451
-7.64511
-7.64467
-7.64318
-7.6407
-7.6373
-7.63305
-7.62804
-7.62238
-7.61621
-7.60978
-7.60341
-7.59744
-7.59214
-7.58771
-7.58433
-7.58232
-7.58228
-7.58463
-7.58884
-7.59348
-7.59689
-7.59829
-7.59779
-7.59636
-7.59573
-7.59702
-7.60089
-7.60798
-7.61915
-7.63534
-7.65698
-7.68397
-7.71592
-7.75241
-7.79324
-7.83826
-7.88723
-7.93979
-7.99531
-8.05312
-8.11238
-8.17219
-8.23166
-8.29003
-8.34665
-8.40101
-8.45264
-8.5012
-8.54643
-8.58812
-8.62613
-8.66032
-8.6906
-8.71687
-8.73906
-8.75711
-8.77094
-8.78051
-8.78576
-8.78666
-8.78317
-8.77525
-8.7629
-8.74609
-8.7248
-8.69903
-8.66876
-8.63401
-8.59478
-8.55111
-8.50302
-8.45041
-8.39318
-8.33136
-8.265
-8.19413
-8.11874
-8.03882
-7.95435
-7.86531
-7.77168
-7.67344
-7.57056
-7.463
-7.35077
-7.23387
-7.11226
-6.98589
-6.85471
-6.71868
-6.57775
-6.4319
-6.2811
-6.12534
-5.9646
-5.7989
-5.62823
-5.4526
-5.27203
-5.08655
-4.89621
-4.70109
-4.50127
-4.29678
-4.08768
-3.87404
-3.65596
-3.43356
-3.207
-2.97639
-2.74191
-2.50372
-2.262
-2.01694
-1.76876
-1.51768
-1.26392
-1.00772
-0.749329
-0.489022
-0.227135
0.0360422
0.300255
0.565243
0.830718
1.0964
1.36201
1.62724
1.89183
2.15548
2.41792
2.67889
2.93812
3.19537
3.4504
3.70299
3.95292
4.2
4.44403
4.68485
4.9223
5.15627
5.38663
5.61331
5.83623
6.05533
6.27057
6.48191
6.68932
6.89277
7.09225
7.28773
7.47924
7.66677
7.85035
8.03002
8.20586
8.37791
8.54688
8.71093
8.87928
9.02088
-7.58988
-7.58937
-7.58896
-7.59007
-7.59376
-7.59958
-7.60653
-7.61386
-7.6211
-7.62794
-7.63425
-7.63995
-7.64499
-7.6493
-7.6528
-7.65543
-7.65711
-7.6578
-7.65746
-7.65608
-7.65366
-7.65023
-7.64582
-7.64049
-7.63429
-7.62729
-7.61955
-7.61122
-7.60255
-7.59394
-7.58593
-7.57917
-7.57445
-7.57263
-7.57407
-7.57767
-7.58171
-7.58528
-7.58797
-7.58984
-7.59149
-7.59399
-7.5985
-7.60601
-7.61762
-7.63404
-7.65526
-7.68071
-7.71
-7.74287
-7.77891
-7.81794
-7.85986
-7.90461
-7.95203
-8.00184
-8.05362
-8.10687
-8.161
-8.21542
-8.26949
-8.32267
-8.37442
-8.42432
-8.47196
-8.51703
-8.55923
-8.59834
-8.63416
-8.66652
-8.69527
-8.72027
-8.74143
-8.75861
-8.77175
-8.78075
-8.78555
-8.78609
-8.78231
-8.77419
-8.76168
-8.74478
-8.72345
-8.69769
-8.66748
-8.63282
-8.59374
-8.55025
-8.50237
-8.45001
-8.39307
-8.33159
-8.26563
-8.1952
-8.1203
-8.04089
-7.95699
-7.86855
-7.77557
-7.67799
-7.57582
-7.46902
-7.35758
-7.24149
-7.1207
-6.99517
-6.86484
-6.72968
-6.58963
-6.44467
-6.29477
-6.13993
-5.98011
-5.81534
-5.64561
-5.47092
-5.29129
-5.10677
-4.91739
-4.72324
-4.52436
-4.32082
-4.11262
-3.89989
-3.6827
-3.46119
-3.23547
-3.00572
-2.77205
-2.53466
-2.2937
-2.04937
-1.80188
-1.55147
-1.29833
-1.04271
-0.784861
-0.525088
-0.263674
-0.000915495
0.26294
0.527606
0.792817
1.05828
1.32371
1.58882
1.85332
2.11693
2.37937
2.64037
2.89967
3.15703
3.41219
3.66495
3.91507
4.16236
4.40662
4.64768
4.8854
5.11964
5.35028
5.57724
5.80045
6.01983
6.23535
6.44695
6.65461
6.85831
7.05802
7.25374
7.44546
7.63319
7.81696
7.99679
8.17278
8.34489
8.51381
8.67718
8.84509
8.97969
-7.59377
-7.59291
-7.59321
-7.59709
-7.60399
-7.61212
-7.62045
-7.62848
-7.63591
-7.64266
-7.64871
-7.65405
-7.65864
-7.66243
-7.66533
-7.66731
-7.66831
-7.66829
-7.66723
-7.66514
-7.66199
-7.65784
-7.65269
-7.64656
-7.63944
-7.63139
-7.62252
-7.61299
-7.60303
-7.59315
-7.58409
-7.57676
-7.57223
-7.57081
-7.57155
-7.57313
-7.57514
-7.57781
-7.58146
-7.58637
-7.59259
-7.60087
-7.61248
-7.62821
-7.64815
-7.67195
-7.69921
-7.72958
-7.76268
-7.79834
-7.83629
-7.87643
-7.91864
-7.96282
-8.0088
-8.05636
-8.10518
-8.15491
-8.20515
-8.25548
-8.30543
-8.35461
-8.4026
-8.44902
-8.49351
-8.53576
-8.57548
-8.61243
-8.64637
-8.67712
-8.70448
-8.72829
-8.74841
-8.76472
-8.77709
-8.78543
-8.78965
-8.78968
-8.78547
-8.77696
-8.76414
-8.74696
-8.72541
-8.69948
-8.66914
-8.63442
-8.5953
-8.55183
-8.504
-8.45172
-8.39491
-8.33363
-8.26791
-8.19777
-8.12321
-8.04419
-7.96072
-7.87275
-7.78027
-7.68325
-7.58167
-7.4755
-7.36471
-7.24929
-7.12919
-7.00435
-6.87474
-6.74029
-6.60097
-6.45675
-6.30761
-6.15352
-5.99448
-5.83048
-5.66151
-5.4876
-5.30875
-5.12501
-4.93643
-4.74307
-4.54496
-4.34215
-4.1347
-3.92268
-3.70621
-3.48539
-3.26036
-3.03125
-2.79823
-2.56144
-2.32107
-2.0773
-1.83033
-1.5804
-1.32772
-1.07252
-0.815071
-0.55567
-0.294591
-0.0321178
0.231491
0.495952
0.760998
1.02633
1.29168
1.55673
1.82121
2.08483
2.34731
2.60838
2.86778
3.12524
3.38055
3.63345
3.88374
4.13121
4.37565
4.61691
4.85483
5.08927
5.32012
5.54729
5.77069
5.99028
6.20599
6.4178
6.62564
6.82951
7.02937
7.22523
7.41707
7.6049
7.78875
7.96862
8.14459
8.31654
8.48513
8.64751
8.81477
8.94246
-7.59883
-7.59825
-7.60044
-7.60705
-7.61552
-7.62408
-7.63227
-7.63993
-7.64699
-7.65343
-7.6592
-7.66425
-7.6685
-7.67191
-7.6744
-7.67593
-7.67645
-7.67595
-7.67441
-7.67182
-7.66819
-7.66357
-7.65792
-7.65119
-7.64339
-7.63468
-7.62524
-7.61532
-7.60522
-7.59552
-7.58711
-7.58088
-7.57688
-7.57424
-7.57251
-7.57205
-7.57345
-7.57713
-7.58298
-7.59122
-7.60255
-7.61744
-7.63586
-7.65768
-7.68273
-7.7107
-7.74124
-7.77418
-7.80928
-7.84641
-7.88535
-7.92597
-7.96811
-8.01166
-8.05645
-8.10232
-8.14901
-8.19628
-8.24381
-8.29132
-8.33844
-8.38483
-8.43015
-8.47406
-8.51624
-8.55638
-8.59421
-8.62946
-8.6619
-8.69131
-8.71747
-8.74022
-8.75939
-8.77482
-8.78639
-8.794
-8.79754
-8.79695
-8.79216
-8.78313
-8.76982
-8.75221
-8.73027
-8.704
-8.67338
-8.63841
-8.59911
-8.55549
-8.50756
-8.45523
-8.39841
-8.33717
-8.27155
-8.20158
-8.12722
-8.04847
-7.96528
-7.87767
-7.78557
-7.68899
-7.58787
-7.4822
-7.37195
-7.25708
-7.13753
-7.01326
-6.88422
-6.75036
-6.61165
-6.46803
-6.31951
-6.16603
-6.00762
-5.84424
-5.6759
-5.50261
-5.32439
-5.14129
-4.95336
-4.76061
-4.56312
-4.36089
-4.15403
-3.94257
-3.72666
-3.50637
-3.28187
-3.05326
-2.82072
-2.58438
-2.34445
-2.10108
-1.8545
-1.60491
-1.35254
-1.09763
-0.840462
-0.581306
-0.32045
-0.0581493
0.20531
0.469671
0.734635
0.999933
1.26526
1.53033
1.79485
2.05853
2.32108
2.58224
2.84174
3.09933
3.35477
3.60782
3.85826
4.10586
4.35045
4.59185
4.8299
5.06448
5.29546
5.52277
5.74631
5.96602
6.18186
6.39377
6.60171
6.80565
7.00557
7.20147
7.39333
7.58117
7.76499
7.94479
8.1206
8.29224
8.46033
8.62159
8.7882
8.9094
-7.60301
-7.6035
-7.60815
-7.61604
-7.62437
-7.63236
-7.63998
-7.6472
-7.65395
-7.66015
-7.66571
-7.67055
-7.67458
-7.67775
-7.67999
-7.68125
-7.6815
-7.68073
-7.67891
-7.67605
-7.67217
-7.66728
-7.66125
-7.65414
-7.64613
-7.63743
-7.62818
-7.61865
-7.60935
-7.60104
-7.59419
-7.58856
-7.58344
-7.57891
-7.57607
-7.57559
-7.57765
-7.58284
-7.59165
-7.60407
-7.61998
-7.63917
-7.66149
-7.6867
-7.71454
-7.74479
-7.77722
-7.81166
-7.84792
-7.88585
-7.92527
-7.96606
-8.00808
-8.0512
-8.09526
-8.1401
-8.18551
-8.23131
-8.27722
-8.323
-8.36835
-8.41298
-8.45657
-8.49883
-8.53946
-8.57816
-8.61465
-8.64868
-8.67998
-8.70833
-8.73351
-8.75533
-8.77361
-8.7882
-8.79896
-8.80578
-8.80856
-8.80723
-8.80174
-8.79204
-8.77811
-8.75991
-8.73744
-8.71068
-8.67963
-8.64428
-8.60463
-8.56072
-8.51256
-8.46003
-8.40309
-8.34176
-8.27613
-8.20619
-8.13192
-8.05331
-7.97033
-7.88294
-7.79113
-7.69487
-7.59411
-7.48884
-7.379
-7.26456
-7.14546
-7.02165
-6.89308
-6.7597
-6.62146
-6.47834
-6.33031
-6.17734
-6.01943
-5.85655
-5.68871
-5.51592
-5.33822
-5.15563
-4.96821
-4.77596
-4.57894
-4.37717
-4.17075
-3.95974
-3.74425
-3.52438
-3.30027
-3.07204
-2.83986
-2.60386
-2.36424
-2.12116
-1.87484
-1.62549
-1.37333
-1.11861
-0.861621
-0.602623
-0.341891
-0.079687
0.183712
0.448037
0.712998
0.978315
1.24368
1.50882
1.77342
2.03719
2.29985
2.56113
2.82076
3.07848
3.33406
3.58724
3.83781
4.08554
4.33024
4.57174
4.80989
5.04457
5.27565
5.50303
5.72666
5.94644
6.16235
6.3743
6.58227
6.78621
6.98613
7.18199
7.37382
7.56158
7.74531
7.92495
8.10052
8.27174
8.43924
8.59937
8.76539
8.88064
-7.60451
-7.60649
-7.61286
-7.62068
-7.62836
-7.63581
-7.64305
-7.65001
-7.65657
-7.66264
-7.6681
-7.67286
-7.67682
-7.67992
-7.68208
-7.68327
-7.68344
-7.6826
-7.68072
-7.6778
-7.67386
-7.66884
-7.6627
-7.65565
-7.64789
-7.63959
-7.63102
-7.62259
-7.61474
-7.60765
-7.6011
-7.59484
-7.58898
-7.58426
-7.58176
-7.58219
-7.58605
-7.59367
-7.60506
-7.61999
-7.6383
-7.65973
-7.68404
-7.711
-7.74036
-7.77191
-7.80545
-7.84081
-7.8778
-7.9163
-7.95613
-7.99718
-8.0393
-8.08235
-8.12616
-8.17061
-8.21549
-8.26063
-8.30578
-8.35072
-8.39517
-8.43888
-8.48155
-8.52291
-8.56265
-8.60049
-8.63616
-8.66938
-8.69989
-8.72746
-8.75185
-8.77286
-8.79033
-8.80409
-8.81402
-8.81999
-8.82192
-8.81975
-8.81343
-8.80294
-8.78824
-8.76933
-8.74618
-8.7188
-8.68717
-8.6513
-8.61119
-8.56687
-8.51835
-8.46553
-8.40833
-8.34682
-8.28107
-8.21106
-8.1368
-8.05823
-7.97535
-7.8881
-7.79649
-7.70045
-7.59996
-7.49498
-7.38547
-7.27137
-7.15263
-7.02918
-6.90098
-6.76799
-6.63014
-6.48742
-6.33979
-6.18723
-6.02972
-5.86725
-5.69981
-5.52744
-5.35014
-5.16798
-4.98094
-4.78909
-4.59242
-4.39103
-4.18494
-3.97429
-3.75911
-3.53957
-3.31574
-3.08781
-2.85587
-2.62011
-2.3807
-2.13783
-1.89168
-1.64249
-1.39045
-1.13585
-0.878954
-0.620042
-0.359359
-0.097188
0.166217
0.430562
0.695575
0.960952
1.22641
1.49164
1.75634
2.02023
2.28301
2.54441
2.80416
3.06202
3.31773
3.57105
3.82173
4.06955
4.31434
4.55592
4.79413
5.02886
5.25998
5.4874
5.71105
5.93086
6.14677
6.35872
6.56665
6.77055
6.9704
7.16618
7.3579
7.54555
7.72911
7.90854
8.0838
8.25456
8.42142
8.58043
8.74589
8.85588
-7.60195
-7.60532
-7.61213
-7.61948
-7.62677
-7.63399
-7.6411
-7.64799
-7.65455
-7.66067
-7.6662
-7.67107
-7.67515
-7.67837
-7.68067
-7.68198
-7.68228
-7.68153
-7.67972
-7.67686
-7.67292
-7.66792
-7.66194
-7.65518
-7.64791
-7.64037
-7.63283
-7.62542
-7.61814
-7.61103
-7.60418
-7.59778
-7.59236
-7.58868
-7.58754
-7.5895
-7.59491
-7.60397
-7.61669
-7.63291
-7.65244
-7.67503
-7.7004
-7.72833
-7.75857
-7.79095
-7.82524
-7.8613
-7.89895
-7.93804
-7.97842
-8.01996
-8.06247
-8.10585
-8.14993
-8.19456
-8.23954
-8.28471
-8.32982
-8.37466
-8.41896
-8.46247
-8.50491
-8.54599
-8.58542
-8.62292
-8.6582
-8.69098
-8.721
-8.74799
-8.77173
-8.79202
-8.8087
-8.82161
-8.83063
-8.83565
-8.83663
-8.8335
-8.82624
-8.81483
-8.79925
-8.77951
-8.75559
-8.72748
-8.69517
-8.65868
-8.618
-8.57318
-8.52419
-8.47099
-8.41345
-8.35167
-8.28571
-8.21557
-8.14121
-8.06262
-7.97975
-7.89258
-7.80107
-7.70518
-7.60489
-7.50013
-7.39086
-7.27703
-7.15857
-7.03542
-6.90753
-6.77485
-6.63732
-6.49493
-6.34763
-6.1954
-6.03822
-5.87608
-5.70898
-5.53695
-5.35999
-5.17816
-4.99145
-4.79989
-4.60352
-4.40241
-4.1966
-3.98621
-3.77129
-3.55198
-3.32839
-3.10065
-2.8689
-2.63332
-2.39406
-2.15132
-1.90528
-1.65618
-1.40422
-1.14968
-0.892841
-0.633956
-0.373283
-0.111091
0.152352
0.416761
0.68185
0.947319
1.21288
1.47821
1.74304
2.00704
2.26995
2.53148
2.79136
3.04935
3.30521
3.55866
3.80943
4.05733
4.30217
4.54379
4.78203
5.01677
5.24789
5.47531
5.69894
5.91875
6.13464
6.34654
6.5544
6.7582
6.95793
7.1536
7.34517
7.53265
7.71602
7.8952
8.0701
8.24035
8.40656
8.56447
8.72939
8.8348
-7.59367
-7.59787
-7.60454
-7.61177
-7.61915
-7.62651
-7.63376
-7.64083
-7.64761
-7.65398
-7.6598
-7.66495
-7.66932
-7.67282
-7.67536
-7.67689
-7.67738
-7.6768
-7.67513
-7.67239
-7.66861
-7.66386
-7.6583
-7.65211
-7.64546
-7.63845
-7.63118
-7.62378
-7.61634
-7.60901
-7.60216
-7.59621
-7.59168
-7.5891
-7.58911
-7.59221
-7.5987
-7.60875
-7.62237
-7.63942
-7.65971
-7.68301
-7.70907
-7.73766
-7.76857
-7.80163
-7.83662
-7.8734
-7.91178
-7.95163
-7.99277
-8.03505
-8.07832
-8.12245
-8.16725
-8.21258
-8.25823
-8.30402
-8.34971
-8.39508
-8.43987
-8.4838
-8.52655
-8.56787
-8.60744
-8.64498
-8.68019
-8.71278
-8.74249
-8.76906
-8.79224
-8.81184
-8.82771
-8.83971
-8.84774
-8.85172
-8.85162
-8.84741
-8.83909
-8.82664
-8.81008
-8.78941
-8.76461
-8.73569
-8.70263
-8.66543
-8.6241
-8.57867
-8.52917
-8.47549
-8.41755
-8.35545
-8.28921
-8.21887
-8.14437
-8.0657
-7.98279
-7.89564
-7.80418
-7.70841
-7.60824
-7.50366
-7.39458
-7.28097
-7.16275
-7.03985
-6.91222
-6.7798
-6.64256
-6.50043
-6.35343
-6.20148
-6.0446
-5.88274
-5.71594
-5.54419
-5.36754
-5.18597
-4.99954
-4.80823
-4.61212
-4.41123
-4.20567
-3.99548
-3.78079
-3.56166
-3.33826
-3.11067
-2.87907
-2.6436
-2.40446
-2.16181
-1.91586
-1.66681
-1.41491
-1.16041
-0.903607
-0.644729
-0.384048
-0.121816
0.14168
0.406169
0.671344
0.936921
1.20259
1.46805
1.73299
1.99713
2.26016
2.52181
2.78182
3.03994
3.29593
3.5495
3.80034
4.04827
4.29312
4.53474
4.77297
5.00769
5.23878
5.46615
5.68975
5.90951
6.12536
6.33717
6.54492
6.74858
6.94818
7.14367
7.33508
7.52236
7.70551
7.8844
8.05894
8.22865
8.3942
8.55107
8.71544
8.81698
-7.57821
-7.58261
-7.5894
-7.59723
-7.60523
-7.61306
-7.62068
-7.62811
-7.63528
-7.64208
-7.64835
-7.65393
-7.65869
-7.66253
-7.6654
-7.66724
-7.668
-7.66768
-7.66628
-7.66383
-7.66037
-7.65599
-7.65078
-7.64484
-7.63829
-7.63124
-7.62379
-7.61608
-7.60837
-7.60098
-7.5943
-7.58871
-7.58474
-7.58295
-7.58385
-7.58786
-7.59525
-7.60614
-7.62051
-7.63825
-7.65916
-7.68305
-7.70969
-7.73891
-7.77048
-7.80426
-7.84003
-7.87765
-7.91693
-7.95773
-7.99986
-8.04321
-8.08759
-8.13287
-8.17885
-8.22535
-8.27215
-8.31906
-8.36583
-8.41222
-8.45794
-8.50271
-8.54622
-8.58816
-8.62822
-8.6661
-8.70149
-8.7341
-8.76364
-8.78985
-8.81248
-8.83134
-8.8463
-8.85727
-8.86416
-8.86694
-8.86557
-8.8601
-8.85056
-8.83696
-8.81932
-8.79764
-8.77192
-8.74212
-8.70824
-8.67029
-8.62824
-8.58213
-8.53203
-8.47787
-8.41954
-8.35707
-8.29056
-8.21998
-8.14533
-8.06655
-7.9836
-7.89645
-7.80504
-7.70933
-7.60928
-7.50484
-7.39596
-7.28255
-7.16455
-7.04189
-6.9145
-6.78233
-6.64534
-6.50349
-6.35675
-6.20508
-6.04847
-5.88689
-5.72037
-5.5489
-5.37252
-5.19122
-5.00502
-4.81396
-4.61808
-4.41743
-4.21208
-4.0021
-3.78761
-3.56867
-3.34543
-3.118
-2.88655
-2.65121
-2.41218
-2.16962
-1.92375
-1.67477
-1.42292
-1.16848
-0.911699
-0.652832
-0.392131
-0.129863
0.133695
0.398258
0.663527
0.929204
1.19498
1.46056
1.72563
1.98988
2.25303
2.5148
2.77492
3.03315
3.2893
3.543
3.79391
4.04183
4.28667
4.52827
4.76646
5.00113
5.23216
5.45947
5.68299
5.90271
6.11851
6.33021
6.5378
6.74131
6.94073
7.13605
7.32726
7.51433
7.69725
7.87586
8.04999
8.21917
8.38407
8.53996
8.70373
8.80208
-7.55506
-7.5593
-7.56686
-7.57596
-7.58494
-7.59337
-7.60149
-7.60944
-7.61722
-7.6247
-7.63166
-7.63785
-7.64313
-7.64743
-7.65073
-7.65296
-7.65411
-7.65415
-7.65308
-7.65092
-7.64771
-7.64349
-7.63835
-7.63234
-7.62558
-7.61817
-7.6103
-7.60222
-7.59424
-7.58666
-7.57992
-7.5745
-7.57095
-7.56977
-7.57141
-7.57621
-7.58438
-7.59601
-7.61105
-7.6294
-7.65089
-7.67536
-7.70262
-7.7325
-7.76482
-7.79942
-7.83612
-7.87477
-7.91517
-7.95716
-8.00056
-8.04525
-8.09103
-8.13776
-8.18522
-8.23324
-8.28158
-8.33001
-8.37826
-8.42606
-8.47309
-8.51906
-8.56363
-8.60649
-8.64728
-8.68569
-8.7214
-8.7541
-8.78348
-8.80924
-8.83113
-8.849
-8.86277
-8.87242
-8.87791
-8.87919
-8.87631
-8.86939
-8.85851
-8.84371
-8.82498
-8.80233
-8.77571
-8.74508
-8.71043
-8.67173
-8.62895
-8.58209
-8.53136
-8.47671
-8.41801
-8.35522
-8.28844
-8.21766
-8.14287
-8.06402
-7.98107
-7.89393
-7.80259
-7.70696
-7.60705
-7.50277
-7.39408
-7.2809
-7.16315
-7.04074
-6.91361
-6.78171
-6.64498
-6.50342
-6.35697
-6.2056
-6.04928
-5.88801
-5.72177
-5.5506
-5.37448
-5.19346
-5.00751
-4.81673
-4.6211
-4.42072
-4.21561
-4.00589
-3.79161
-3.57291
-3.34986
-3.12265
-2.89136
-2.6562
-2.41731
-2.17489
-1.92911
-1.68022
-1.42846
-1.1741
-0.917377
-0.658547
-0.397854
-0.135577
0.128015
0.392621
0.657953
0.923698
1.18956
1.45521
1.72037
1.9847
2.24794
2.50978
2.76996
3.02829
3.28459
3.53851
3.78951
4.03742
4.28222
4.52377
4.7619
4.9965
5.22746
5.45468
5.67813
5.89781
6.11358
6.32517
6.53259
6.73592
6.93515
7.13028
7.32128
7.50814
7.69083
7.86915
8.04288
8.21153
8.37578
8.53075
8.69387
8.78973
-7.5249
-7.52935
-7.53829
-7.54906
-7.55912
-7.56822
-7.57708
-7.58593
-7.59457
-7.60293
-7.61084
-7.61791
-7.62384
-7.62862
-7.63237
-7.63505
-7.63662
-7.63703
-7.63627
-7.63431
-7.63118
-7.62691
-7.62156
-7.61518
-7.60793
-7.59996
-7.59152
-7.58286
-7.57436
-7.56641
-7.55952
-7.55418
-7.55094
-7.55022
-7.55244
-7.55787
-7.56666
-7.57888
-7.59448
-7.61339
-7.63546
-7.66058
-7.68854
-7.71919
-7.75235
-7.78789
-7.82561
-7.86538
-7.907
-7.95033
-7.99519
-8.04143
-8.08885
-8.13729
-8.18651
-8.23633
-8.28649
-8.33674
-8.38676
-8.43624
-8.48482
-8.53217
-8.57793
-8.62173
-8.66322
-8.70206
-8.7379
-8.77043
-8.79935
-8.82433
-8.84512
-8.86159
-8.8738
-8.88183
-8.88565
-8.8851
-8.88034
-8.87177
-8.85959
-8.84373
-8.82415
-8.80078
-8.77352
-8.74227
-8.70702
-8.66775
-8.62439
-8.57678
-8.52541
-8.47032
-8.41127
-8.34817
-8.28111
-8.21014
-8.13522
-8.05632
-7.97336
-7.88626
-7.79494
-7.69939
-7.59957
-7.49545
-7.38696
-7.27401
-7.15651
-7.03434
-6.90746
-6.7758
-6.63935
-6.49807
-6.35192
-6.20085
-6.04484
-5.88386
-5.71793
-5.54704
-5.37121
-5.19046
-5.00481
-4.81431
-4.61897
-4.41888
-4.21405
-4.0046
-3.79058
-3.57213
-3.34935
-3.12237
-2.89132
-2.65638
-2.41771
-2.1755
-1.92994
-1.68125
-1.42968
-1.17551
-0.918957
-0.660269
-0.399705
-0.137536
0.125955
0.390475
0.655725
0.921399
1.18719
1.45278
1.71786
1.98212
2.24527
2.50701
2.76708
3.02527
3.28153
3.53554
3.7866
4.03447
4.2792
4.52066
4.75871
4.99322
5.22407
5.45119
5.67454
5.89426
6.1101
6.32161
6.52887
6.73202
6.93107
7.12602
7.31684
7.50349
7.68599
7.86407
8.03742
8.20553
8.36917
8.52326
8.68568
8.7797
-7.49021
-7.49551
-7.50636
-7.5192
-7.53052
-7.54026
-7.54962
-7.55931
-7.5692
-7.57884
-7.58791
-7.59605
-7.60279
-7.60805
-7.61217
-7.61525
-7.6172
-7.6179
-7.61732
-7.6154
-7.61215
-7.60756
-7.60173
-7.59474
-7.58676
-7.57796
-7.56866
-7.55918
-7.54999
-7.54153
-7.53435
-7.52894
-7.5258
-7.52533
-7.52789
-7.53369
-7.54287
-7.55548
-7.57151
-7.59089
-7.61349
-7.6392
-7.66784
-7.69929
-7.73335
-7.76989
-7.80871
-7.84968
-7.89262
-7.9374
-7.98384
-8.03176
-8.08098
-8.13128
-8.18246
-8.23423
-8.28633
-8.33843
-8.39019
-8.44122
-8.49118
-8.53966
-8.5863
-8.6307
-8.67251
-8.71137
-8.74694
-8.7789
-8.80697
-8.83077
-8.84993
-8.8644
-8.87458
-8.88077
-8.88279
-8.88012
-8.87299
-8.86247
-8.84899
-8.83235
-8.81227
-8.78858
-8.76106
-8.7295
-8.69393
-8.65454
-8.61122
-8.56419
-8.51316
-8.45819
-8.39899
-8.3357
-8.26842
-8.19725
-8.12215
-8.04313
-7.96005
-7.87288
-7.78149
-7.68591
-7.58609
-7.48202
-7.37362
-7.2608
-7.14343
-7.02141
-6.89468
-6.7632
-6.62694
-6.48586
-6.33992
-6.18907
-6.03328
-5.87252
-5.7068
-5.53612
-5.36053
-5.17999
-4.99458
-4.80429
-4.60922
-4.40935
-4.20478
-3.99555
-3.78179
-3.56357
-3.34104
-3.11428
-2.88349
-2.64878
-2.41036
-2.16837
-1.92304
-1.6746
-1.4233
-1.16937
-0.913053
-0.654582
-0.394226
-0.132254
0.131042
0.395375
0.660436
0.925924
1.19152
1.45691
1.72178
1.98582
2.24872
2.51017
2.76988
3.02759
3.28306
3.53608
3.78649
4.03404
4.27851
4.51972
4.75751
4.99176
5.22235
5.44918
5.67225
5.89181
6.10762
6.31902
6.5261
6.72907
6.92796
7.12274
7.31339
7.49988
7.68229
7.86023
8.03325
8.20086
8.36392
8.51718
8.67886
8.77169
-7.45329
-7.45974
-7.473
-7.48794
-7.49985
-7.51007
-7.5206
-7.53166
-7.54279
-7.55363
-7.5639
-7.57314
-7.58077
-7.58669
-7.59135
-7.59493
-7.59728
-7.59825
-7.59778
-7.59576
-7.59224
-7.58715
-7.58064
-7.57275
-7.56375
-7.55383
-7.54342
-7.53285
-7.52267
-7.51336
-7.50549
-7.49955
-7.49603
-7.49529
-7.49768
-7.5034
-7.51259
-7.52529
-7.54149
-7.56112
-7.58408
-7.61028
-7.63954
-7.67179
-7.70679
-7.74443
-7.78447
-7.8268
-7.87119
-7.91756
-7.96563
-8.01532
-8.0663
-8.11844
-8.17139
-8.22497
-8.27874
-8.33242
-8.38555
-8.43781
-8.48871
-8.53791
-8.58498
-8.62956
-8.67126
-8.70976
-8.74471
-8.77584
-8.8028
-8.82509
-8.84189
-8.85317
-8.86026
-8.86424
-8.86507
-8.86215
-8.85507
-8.84426
-8.82999
-8.81262
-8.79183
-8.76766
-8.73961
-8.70766
-8.67169
-8.63207
-8.58901
-8.54243
-8.49201
-8.43717
-8.37798
-8.31464
-8.24732
-8.17608
-8.10092
-8.0218
-7.93868
-7.85146
-7.76009
-7.66455
-7.56483
-7.46088
-7.35262
-7.23996
-7.12278
-7.00097
-6.87447
-6.74324
-6.60724
-6.46642
-6.32074
-6.17016