/*--------------------------------*- C++ -*----------------------------------*\
  =========                 |
  \\      /  F ield         | OpenFOAM: The Open Source CFD Toolbox
   \\    /   O peration     | Website:  https://openfoam.org
    \\  /    A nd           | Version:  13
     \\/     M anipulation  |
\*---------------------------------------------------------------------------*/
FoamFile
{
    format      ascii;
    class       surfaceScalarField;
    location    "700";
    object      phi;
}
// * * * * * * * * * * * * * * * * * * * * * * * * * * * * * * * * * * * * * //

dimensions      [0 3 -1 0 0 0 0];

internalField   nonuniform List<scalar> 
24170
(
3.05699e-06
1.31453e-07
2.90474e-06
1.52335e-07
2.7622e-06
1.42423e-07
2.63661e-06
1.25709e-07
2.52847e-06
1.08068e-07
2.4357e-06
9.28572e-08
2.35606e-06
7.95083e-08
2.28667e-06
6.93514e-08
2.22697e-06
5.95664e-08
2.17782e-06
4.90541e-08
2.13931e-06
3.84339e-08
2.10949e-06
2.97459e-08
2.08554e-06
2.38911e-08
2.06613e-06
1.93549e-08
2.05172e-06
1.43979e-08
2.04292e-06
8.79255e-09
2.03967e-06
3.22657e-09
-1.47587e-09
2.04108e-06
3.47384e-06
7.48885e-08
3.51558e-06
1.10611e-07
3.53474e-06
1.2312e-07
3.53319e-06
1.27342e-07
3.52129e-06
1.19977e-07
3.50399e-06
1.10515e-07
3.48153e-06
1.02198e-07
3.45662e-06
9.45281e-08
3.42985e-06
8.64758e-08
3.4014e-06
7.7601e-08
3.3713e-06
6.85693e-08
3.3415e-06
5.95295e-08
3.31354e-06
5.18293e-08
3.28681e-06
4.60429e-08
3.26094e-06
4.02437e-08
3.2348e-06
3.48977e-08
3.20812e-06
2.98394e-08
2.42994e-08
3.18232e-06
3.6819e-06
5.55146e-08
3.69844e-06
9.41748e-08
3.71583e-06
1.05563e-07
3.73414e-06
1.09024e-07
3.7494e-06
1.04674e-07
3.76203e-06
9.78945e-08
3.77234e-06
9.18066e-08
3.78048e-06
8.63633e-08
3.78633e-06
8.05411e-08
3.78974e-06
7.41539e-08
3.79066e-06
6.76225e-08
3.78928e-06
6.09071e-08
3.78632e-06
5.47964e-08
3.78247e-06
4.99106e-08
3.77759e-06
4.51399e-08
3.77186e-06
4.0629e-08
3.76537e-06
3.63088e-08
3.11424e-08
3.75848e-06
3.93578e-06
4.51083e-08
3.94515e-06
8.45619e-08
3.95443e-06
9.60032e-08
3.96379e-06
9.95473e-08
3.9714e-06
9.69609e-08
3.9778e-06
9.15793e-08
3.98379e-06
8.59098e-08
3.98981e-06
8.04946e-08
3.99568e-06
7.47949e-08
4.00121e-06
6.87415e-08
4.00626e-06
6.26698e-08
4.01063e-06
5.66241e-08
4.01438e-06
5.11193e-08
4.01784e-06
4.65105e-08
4.02093e-06
4.20952e-08
4.02373e-06
3.7848e-08
4.0264e-06
3.36138e-08
2.91095e-08
4.02843e-06
4.2158e-06
3.643e-08
4.22463e-06
7.58503e-08
4.23239e-06
8.81245e-08
4.23988e-06
9.20225e-08
4.24618e-06
9.06476e-08
4.25113e-06
8.6593e-08
4.25533e-06
8.16598e-08
4.25932e-06
7.64706e-08
4.26308e-06
7.09723e-08
4.2666e-06
6.5183e-08
4.26991e-06
5.93482e-08
4.27293e-06
5.36164e-08
4.27569e-06
4.83777e-08
4.27837e-06
4.38442e-08
4.28092e-06
3.95737e-08
4.2833e-06
3.54657e-08
4.28554e-06
3.13668e-08
2.722e-08
4.28741e-06
4.51621e-06
2.93033e-08
4.52481e-06
6.70014e-08
4.53216e-06
8.05143e-08
4.53928e-06
8.47459e-08
4.54555e-06
8.4264e-08
4.55073e-06
8.13793e-08
4.55515e-06
7.72318e-08
4.55917e-06
7.24794e-08
4.56284e-06
6.73537e-08
4.56616e-06
6.19199e-08
4.56916e-06
5.64066e-08
4.57183e-06
5.10103e-08
4.57424e-06
4.60243e-08
4.57656e-06
4.15782e-08
4.57877e-06
3.74068e-08
4.58085e-06
3.34086e-08
4.58274e-06
2.94734e-08
2.56179e-08
4.58434e-06
4.83797e-06
2.40567e-08
4.84635e-06
5.87494e-08
4.85378e-06
7.30339e-08
4.86078e-06
7.77173e-08
4.86699e-06
7.80556e-08
4.87233e-06
7.60111e-08
4.87698e-06
7.25449e-08
4.8812e-06
6.82246e-08
4.88506e-06
6.34419e-08
4.88858e-06
5.83758e-08
4.89174e-06
5.32247e-08
4.89457e-06
4.81796e-08
4.89713e-06
4.34617e-08
4.89955e-06
3.91705e-08
4.90181e-06
3.51525e-08
4.90392e-06
3.13092e-08
4.9058e-06
2.75896e-08
2.4003e-08
4.90741e-06
5.18338e-06
2.02685e-08
5.19107e-06
5.0943e-08
5.19865e-06
6.53231e-08
5.20565e-06
7.0636e-08
5.21191e-06
7.17349e-08
5.21744e-06
7.0445e-08
5.22237e-06
6.76077e-08
5.22683e-06
6.37649e-08
5.23092e-06
5.93539e-08
5.23467e-06
5.46463e-08
5.23806e-06
4.98576e-08
5.2411e-06
4.51602e-08
5.24387e-06
4.07224e-08
5.24644e-06
3.66212e-08
5.24883e-06
3.27791e-08
5.25103e-06
2.91211e-08
5.253e-06
2.56222e-08
2.23168e-08
5.2547e-06
5.55448e-06
1.71278e-08
5.56136e-06
4.41711e-08
5.56872e-06
5.79762e-08
5.57566e-06
6.37021e-08
5.58204e-06
6.53628e-08
5.58781e-06
6.4656e-08
5.59305e-06
6.23601e-08
5.59779e-06
5.89998e-08
5.60212e-06
5.50058e-08
5.60607e-06
5.0674e-08
5.60966e-06
4.62511e-08
5.6129e-06
4.19107e-08
5.61585e-06
3.77721e-08
5.61857e-06
3.39017e-08
5.62109e-06
3.02647e-08
5.62339e-06
2.68144e-08
5.62548e-06
2.35481e-08
2.04735e-08
5.62732e-06
5.95258e-06
1.4337e-08
5.95867e-06
3.80265e-08
5.96569e-06
5.08878e-08
5.97253e-06
5.68266e-08
5.97898e-06
5.88925e-08
5.98496e-06
5.86618e-08
5.99047e-06
5.685e-08
5.99551e-06
5.39621e-08
6.00011e-06
5.04205e-08
6.00428e-06
4.65126e-08
6.00807e-06
4.24767e-08
6.01151e-06
3.8485e-08
6.01464e-06
3.46556e-08
6.01752e-06
3.1038e-08
6.02017e-06
2.76304e-08
6.02259e-06
2.44059e-08
6.02477e-06
2.13643e-08
1.85303e-08
6.02674e-06
6.37916e-06
1.19922e-08
6.38468e-06
3.25874e-08
6.39134e-06
4.42497e-08
6.39803e-06
5.01428e-08
6.40449e-06
5.24375e-08
6.41061e-06
5.25409e-08
6.41633e-06
5.11331e-08
6.42162e-06
4.86756e-08
6.42647e-06
4.55667e-08
6.43089e-06
4.20889e-08
6.43491e-06
3.84613e-08
6.43856e-06
3.48452e-08
6.44188e-06
3.1336e-08
6.44493e-06
2.80037e-08
6.44772e-06
2.48488e-08
6.45027e-06
2.18704e-08
6.45258e-06
1.90738e-08
1.64593e-08
6.45465e-06
5.74254e-06
1.03093e-08
5.74676e-06
2.83788e-08
5.75206e-06
3.89411e-08
5.75757e-06
4.46267e-08
5.76299e-06
4.70095e-08
5.76822e-06
4.73141e-08
5.77316e-06
4.61862e-08
5.77778e-06
4.4059e-08
5.78205e-06
4.12945e-08
5.78596e-06
3.81721e-08
5.78954e-06
3.48931e-08
5.79279e-06
3.15803e-08
5.79576e-06
2.83647e-08
5.79848e-06
2.52813e-08
5.80096e-06
2.23619e-08
5.80323e-06
1.96049e-08
5.80528e-06
1.70161e-08
1.46175e-08
5.80714e-06
6.99987e-06
8.59295e-09
7.0043e-06
2.4003e-08
7.01001e-06
3.3259e-08
7.01611e-06
3.85276e-08
7.02224e-06
4.08859e-08
7.02822e-06
4.13322e-08
7.03395e-06
4.04711e-08
7.03934e-06
3.86725e-08
7.04436e-06
3.62809e-08
7.049e-06
3.35408e-08
7.05326e-06
3.06192e-08
7.05716e-06
2.76731e-08
7.06073e-06
2.47754e-08
7.06401e-06
2.19951e-08
7.067e-06
1.93503e-08
7.06973e-06
1.68565e-08
7.07222e-06
1.45274e-08
1.23626e-08
7.07447e-06
8.53257e-06
6.8924e-09
8.53713e-06
1.94899e-08
8.54316e-06
2.72436e-08
8.54982e-06
3.18953e-08
8.55663e-06
3.40692e-08
8.56339e-06
3.45902e-08
8.56992e-06
3.39364e-08
8.57614e-06
3.2469e-08
8.58197e-06
3.04433e-08
8.58741e-06
2.8095e-08
8.59243e-06
2.5583e-08
8.59706e-06
2.30207e-08
8.60132e-06
2.04947e-08
8.60524e-06
1.80606e-08
8.60883e-06
1.57408e-08
8.61212e-06
1.35587e-08
8.61511e-06
1.15194e-08
9.63835e-09
8.61783e-06
1.04009e-05
5.19054e-09
1.04056e-05
1.4899e-08
1.04119e-05
2.09735e-08
1.0419e-05
2.47443e-08
1.04265e-05
2.65961e-08
1.0434e-05
2.70512e-08
1.04414e-05
2.65669e-08
1.04485e-05
2.53688e-08
1.04552e-05
2.37194e-08
1.04615e-05
2.17763e-08
1.04674e-05
1.96925e-08
1.04728e-05
1.75555e-08
1.04779e-05
1.54499e-08
1.04825e-05
1.34066e-08
1.04868e-05
1.1465e-08
1.04907e-05
9.63525e-09
1.04943e-05
7.9375e-09
6.37121e-09
1.04975e-05
1.26785e-05
3.50812e-09
1.26832e-05
1.02561e-08
1.26897e-05
1.44505e-08
1.26973e-05
1.71249e-08
1.27055e-05
1.84295e-08
1.27138e-05
1.87182e-08
1.27221e-05
1.82832e-08
1.27301e-05
1.73352e-08
1.27378e-05
1.60251e-08
1.27451e-05
1.45029e-08
1.27519e-05
1.28655e-08
1.27582e-05
1.11971e-08
1.27641e-05
9.54234e-09
1.27696e-05
7.94407e-09
1.27747e-05
6.42212e-09
1.27793e-05
4.99833e-09
1.27836e-05
3.67812e-09
2.47766e-09
1.27875e-05
1.54549e-05
1.81787e-09
1.54596e-05
5.50049e-09
1.54665e-05
7.62799e-09
1.54746e-05
8.95196e-09
1.54836e-05
9.51835e-09
1.54928e-05
9.47825e-09
1.55021e-05
9.01255e-09
1.55112e-05
8.23934e-09
1.55199e-05
7.25476e-09
1.55283e-05
6.14736e-09
1.55362e-05
4.97781e-09
1.55436e-05
3.79742e-09
1.55505e-05
2.63695e-09
1.55569e-05
1.52444e-09
1.55629e-05
4.74118e-10
1.55684e-05
-4.98143e-10
1.55735e-05
-1.38766e-09
-2.18392e-09
1.55781e-05
1.88394e-05
5.62631e-11
1.88445e-05
4.37759e-10
1.88518e-05
2.37828e-10
1.88608e-05
-3.49032e-11
1.88708e-05
-4.12601e-10
1.88812e-05
-9.21432e-10
1.88917e-05
-1.51059e-09
1.89021e-05
-2.15702e-09
1.89122e-05
-2.83448e-09
1.89219e-05
-3.52167e-09
1.8931e-05
-4.20012e-09
1.89397e-05
-4.85503e-09
1.89478e-05
-5.47494e-09
1.89554e-05
-6.05019e-09
1.89625e-05
-6.5746e-09
1.8969e-05
-7.04207e-09
1.89751e-05
-7.44931e-09
-7.79248e-09
1.89807e-05
2.29654e-05
-1.96767e-09
2.29712e-05
-5.44138e-09
2.29799e-05
-8.41587e-09
2.29904e-05
-1.05671e-08
2.3002e-05
-1.20793e-08
2.30143e-05
-1.31558e-08
2.30267e-05
-1.39176e-08
2.3039e-05
-1.44288e-08
2.30509e-05
-1.47649e-08
2.30623e-05
-1.49682e-08
2.30732e-05
-1.50853e-08
2.30835e-05
-1.51335e-08
2.30932e-05
-1.51334e-08
2.31023e-05
-1.50904e-08
2.31107e-05
-1.50142e-08
2.31186e-05
-1.49044e-08
2.31259e-05
-1.47641e-08
-1.45922e-08
2.31327e-05
1.68124e-05
-3.64862e-09
1.68171e-05
-1.02236e-08
1.68241e-05
-1.532e-08
1.68323e-05
-1.88083e-08
1.68413e-05
-2.10438e-08
1.68505e-05
-2.24735e-08
1.68599e-05
-2.32702e-08
1.68691e-05
-2.36225e-08
1.6878e-05
-2.36318e-08
1.68864e-05
-2.34395e-08
1.68945e-05
-2.30998e-08
1.6902e-05
-2.26835e-08
1.69091e-05
-2.22074e-08
1.69157e-05
-2.17099e-08
1.69219e-05
-2.11905e-08
1.69277e-05
-2.06704e-08
1.69331e-05
-2.0137e-08
-1.96089e-08
1.6938e-05
1.46364e-05
-5.43586e-09
1.46413e-05
-1.51938e-08
1.46483e-05
-2.22958e-08
1.46563e-05
-2.68155e-08
1.46648e-05
-2.95791e-08
1.46736e-05
-3.11843e-08
1.46822e-05
-3.19279e-08
1.46906e-05
-3.20095e-08
1.46986e-05
-3.16566e-08
1.47062e-05
-3.10265e-08
1.47134e-05
-3.02397e-08
1.472e-05
-2.93621e-08
1.47263e-05
-2.84465e-08
1.47321e-05
-2.75212e-08
1.47375e-05
-2.66089e-08
1.47426e-05
-2.57126e-08
1.47473e-05
-2.48408e-08
-2.39871e-08
1.47517e-05
1.27422e-05
-7.49278e-09
1.27477e-05
-2.06978e-08
1.2755e-05
-2.95692e-08
1.2763e-05
-3.48104e-08
1.27712e-05
-3.78645e-08
1.27796e-05
-3.95187e-08
1.27877e-05
-4.00632e-08
1.27955e-05
-3.97942e-08
1.28028e-05
-3.90065e-08
1.28097e-05
-3.79154e-08
1.28162e-05
-3.66598e-08
1.28221e-05
-3.53246e-08
1.28277e-05
-3.39801e-08
1.28328e-05
-3.26557e-08
1.28376e-05
-3.13781e-08
1.2842e-05
-3.01447e-08
1.28461e-05
-2.89637e-08
-2.78288e-08
1.285e-05
1.10935e-05
-1.00247e-08
1.10997e-05
-2.69676e-08
1.11074e-05
-3.72636e-08
1.11154e-05
-4.28293e-08
1.11236e-05
-4.59946e-08
1.11316e-05
-4.75527e-08
1.11393e-05
-4.77757e-08
1.11466e-05
-4.70621e-08
1.11534e-05
-4.57959e-08
1.11597e-05
-4.42211e-08
1.11655e-05
-4.24812e-08
1.11708e-05
-4.0683e-08
1.11758e-05
-3.8905e-08
1.11803e-05
-3.71932e-08
1.11845e-05
-3.55625e-08
1.11884e-05
-3.40167e-08
1.11919e-05
-3.25452e-08
-3.11579e-08
1.11953e-05
9.65851e-06
-1.33198e-08
9.66574e-06
-3.42091e-08
9.67379e-06
-4.5304e-08
9.68181e-06
-5.08592e-08
9.68981e-06
-5.40046e-08
9.69759e-06
-5.53371e-08
9.70493e-06
-5.51159e-08
9.71175e-06
-5.38821e-08
9.71805e-06
-5.20973e-08
9.72385e-06
-5.00238e-08
9.72916e-06
-4.77984e-08
9.73402e-06
-4.55369e-08
9.73844e-06
-4.33327e-08
9.74248e-06
-4.1233e-08
9.74618e-06
-3.92622e-08
9.74957e-06
-3.74137e-08
9.7527e-06
-3.5677e-08
-3.40677e-08
9.75561e-06
8.40975e-06
-1.77203e-08
8.4181e-06
-4.25587e-08
8.42642e-06
-5.36247e-08
8.43443e-06
-5.88779e-08
8.44236e-06
-6.19303e-08
8.44994e-06
-6.29213e-08
8.45699e-06
-6.21684e-08
8.46348e-06
-6.03725e-08
8.46942e-06
-5.80401e-08
8.47483e-06
-5.54346e-08
8.47975e-06
-5.27189e-08
8.48421e-06
-5.00034e-08
8.48825e-06
-4.73783e-08
8.49192e-06
-4.4897e-08
8.49524e-06
-4.25881e-08
8.49828e-06
-4.04507e-08
8.50105e-06
-3.84559e-08
-3.66068e-08
8.50359e-06
7.32312e-06
-2.35564e-08
7.33285e-06
-5.22928e-08
7.34153e-06
-6.23115e-08
7.34972e-06
-6.70709e-08
7.35775e-06
-6.99689e-08
7.36532e-06
-7.04964e-08
7.3723e-06
-6.91468e-08
7.3787e-06
-6.67704e-08
7.38454e-06
-6.38738e-08
7.38981e-06
-6.07106e-08
7.39456e-06
-5.7466e-08
7.39883e-06
-5.42775e-08
7.40266e-06
-5.1212e-08
7.4061e-06
-4.83396e-08
7.40919e-06
-4.56783e-08
7.41199e-06
-4.32455e-08
7.41454e-06
-4.10138e-08
-3.89714e-08
7.4169e-06
6.37815e-06
-3.16407e-08
6.38987e-06
-6.40148e-08
6.39971e-06
-7.21462e-08
6.40903e-06
-7.6424e-08
6.41804e-06
-7.89599e-08
6.42639e-06
-7.88419e-08
6.43399e-06
-7.67534e-08
6.44089e-06
-7.36686e-08
6.4471e-06
-7.00806e-08
6.45261e-06
-6.62175e-08
6.45747e-06
-6.23329e-08
6.46172e-06
-5.85288e-08
6.46541e-06
-5.49102e-08
6.46863e-06
-5.15515e-08
6.47143e-06
-4.84805e-08
6.47392e-06
-4.57326e-08
6.47618e-06
-4.32735e-08
-4.10651e-08
6.47825e-06
5.56075e-06
-4.69234e-08
5.57722e-06
-8.04814e-08
5.59189e-06
-8.68277e-08
5.60598e-06
-9.05428e-08
5.61893e-06
-9.18985e-08
5.63027e-06
-9.01719e-08
5.63992e-06
-8.64045e-08
5.64792e-06
-8.16672e-08
5.65432e-06
-7.64756e-08
5.65921e-06
-7.11186e-08
5.66274e-06
-6.58647e-08
5.66507e-06
-6.08646e-08
5.6664e-06
-5.62404e-08
5.66696e-06
-5.21083e-08
5.66694e-06
-4.84575e-08
5.6665e-06
-4.52938e-08
5.66584e-06
-4.26189e-08
-4.05805e-08
5.66535e-06
4.87861e-06
-9.79311e-08
4.91587e-06
-1.17733e-07
4.94292e-06
-1.13888e-07
4.96023e-06
-1.07879e-07
4.96863e-06
-1.00296e-07
4.96956e-06
-9.10996e-08
4.96468e-06
-8.15244e-08
4.95535e-06
-7.23286e-08
4.94267e-06
-6.37976e-08
4.92754e-06
-5.59874e-08
4.91061e-06
-4.89424e-08
4.89247e-06
-4.27245e-08
4.87357e-06
-3.73357e-08
4.85424e-06
-3.27792e-08
4.83491e-06
-2.91292e-08
4.81594e-06
-2.63196e-08
4.79744e-06
-2.4127e-08
-2.28925e-08
4.77975e-06
4.10475e-06
3.98701e-06
3.87312e-06
3.76524e-06
3.66495e-06
3.57385e-06
3.49232e-06
3.42e-06
3.3562e-06
3.30021e-06
3.25127e-06
3.20854e-06
3.17121e-06
3.13843e-06
3.1093e-06
3.08298e-06
3.05885e-06
3.03596e-06
-7.91168e-09
7.86243e-09
-2.16535e-08
1.36521e-08
-3.66906e-08
1.496e-08
-4.98103e-08
1.30603e-08
-5.63303e-08
6.45866e-09
-5.04238e-08
-5.96467e-09
-2.95674e-08
-2.08971e-08
4.22992e-09
-3.38819e-08
4.73182e-08
-4.3112e-08
9.51083e-08
-4.7871e-08
1.43264e-07
-4.81605e-08
1.88502e-07
-4.53062e-08
2.28876e-07
-4.03731e-08
2.62974e-07
-3.41563e-08
2.90174e-07
-2.72068e-08
3.09983e-07
-1.98543e-08
3.22209e-07
-1.22547e-08
3.26603e-07
-4.4073e-09
3.22912e-07
3.65456e-09
3.11257e-07
1.16894e-08
2.91914e-07
1.92981e-08
2.65874e-07
2.61381e-08
2.34009e-07
3.18373e-08
1.98129e-07
3.60256e-08
1.59852e-07
3.82829e-08
1.21708e-07
3.83103e-08
8.57855e-08
3.59615e-08
5.4567e-08
3.14433e-08
2.93243e-08
2.5329e-08
1.10792e-08
1.85787e-08
-9.31433e-10
1.21187e-08
-6.86953e-09
6.38288e-09
-7.61318e-09
8.79882e-10
-2.02692e-09
-5.02862e-09
9.78611e-09
-1.17857e-08
2.94849e-08
-1.92527e-08
5.56458e-08
-2.61797e-08
8.55958e-08
-2.97744e-08
1.13969e-07
-2.83947e-08
1.36423e-07
-2.24281e-08
1.50146e-07
-1.37152e-08
1.55831e-07
-5.62947e-09
1.56444e-07
-5.6385e-10
1.5521e-07
1.30038e-09
1.54791e-07
4.6116e-10
1.55486e-07
-6.67757e-10
1.49809e-07
5.626e-09
1.28836e-07
2.10557e-08
8.41642e-08
4.46721e-08
1.30394e-08
7.11804e-08
-8.11957e-08
9.43053e-08
-1.94831e-07
1.13383e-07
-3.24106e-07
1.29327e-07
-4.66007e-07
1.41511e-07
-6.12618e-07
1.46715e-07
-7.60041e-07
1.47033e-07
-9.06245e-07
1.46312e-07
-1.04868e-06
1.42097e-07
-1.1831e-06
1.34599e-07
-1.30906e-06
1.25672e-07
-1.42561e-06
1.16699e-07
-1.53331e-06
1.07481e-07
-1.63115e-06
9.80461e-08
-1.72099e-06
8.97088e-08
-1.8032e-06
8.24217e-08
-1.87896e-06
7.56539e-08
-1.94842e-06
6.96375e-08
-2.01276e-06
6.42551e-08
-2.0722e-06
5.95643e-08
-2.12767e-06
5.53827e-08
-2.17927e-06
5.16962e-08
-2.22771e-06
4.8374e-08
-2.27306e-06
4.53978e-08
-2.31578e-06
4.26725e-08
-2.35594e-06
4.01851e-08
-2.39383e-06
3.78658e-08
-2.42954e-06
3.57101e-08
-2.46321e-06
3.36753e-08
-2.49497e-06
3.17478e-08
-2.52485e-06
2.99161e-08
-2.55301e-06
2.81581e-08
-2.57942e-06
2.64772e-08
-2.60428e-06
2.48435e-08
-2.62746e-06
2.32847e-08
-2.6492e-06
2.17568e-08
-2.66937e-06
2.02915e-08
-2.6882e-06
1.88375e-08
-2.70563e-06
1.74363e-08
-2.7218e-06
1.60577e-08
-2.73673e-06
1.46931e-08
-2.75027e-06
1.33726e-08
-2.76243e-06
1.20832e-08
-2.77327e-06
1.08144e-08
-2.78283e-06
9.55794e-09
-2.7911e-06
8.29534e-09
-2.79808e-06
7.02302e-09
-2.80376e-06
5.72082e-09
-2.80807e-06
4.38656e-09
-2.81099e-06
2.99816e-09
-2.81246e-06
1.55932e-09
-2.81245e-06
9.17425e-11
-2.81109e-06
-1.23904e-09
-2.8086e-06
-2.38229e-09
-2.80502e-06
-3.44547e-09
-2.80041e-06
-4.51155e-09
-2.79475e-06
-5.57345e-09
-2.78806e-06
-6.65578e-09
-2.7803e-06
-7.74556e-09
-2.77146e-06
-8.85233e-09
-2.76153e-06
-9.96853e-09
-2.75049e-06
-1.10976e-08
-2.73832e-06
-1.22385e-08
-2.725e-06
-1.33886e-08
-2.71053e-06
-1.45532e-08
-2.69489e-06
-1.5723e-08
-2.67808e-06
-1.69085e-08
-2.66007e-06
-1.8094e-08
-2.64085e-06
-1.92914e-08
-2.62041e-06
-2.04839e-08
-2.59877e-06
-2.16888e-08
-2.57593e-06
-2.28968e-08
-2.55192e-06
-2.41266e-08
-2.52669e-06
-2.53506e-08
-2.50025e-06
-2.65929e-08
-2.47255e-06
-2.78113e-08
-2.44364e-06
-2.9043e-08
-2.41346e-06
-3.02461e-08
-2.38209e-06
-3.14638e-08
-2.34946e-06
-3.26508e-08
-2.31566e-06
-3.38519e-08
-2.28064e-06
-3.50127e-08
-2.24448e-06
-3.61773e-08
-2.20713e-06
-3.73036e-08
-2.16868e-06
-3.8426e-08
-2.12911e-06
-3.94868e-08
-2.08853e-06
-4.0513e-08
-2.04694e-06
-4.14621e-08
-2.00446e-06
-4.23557e-08
-1.96101e-06
-4.32764e-08
-1.91656e-06
-4.42864e-08
-1.87116e-06
-4.5234e-08
-1.82493e-06
-4.61114e-08
-1.77791e-06
-4.69433e-08
-1.73015e-06
-4.77358e-08
-1.68167e-06
-4.84845e-08
-1.63253e-06
-4.91901e-08
-1.58275e-06
-4.98497e-08
-1.5324e-06
-5.04634e-08
-1.48149e-06
-5.103e-08
-1.43009e-06
-5.15501e-08
-1.37823e-06
-5.20235e-08
-1.32597e-06
-5.24493e-08
-1.27334e-06
-5.28265e-08
-1.2204e-06
-5.31515e-08
-1.1672e-06
-5.34248e-08
-1.11378e-06
-5.36432e-08
-1.0602e-06
-5.38125e-08
-1.0065e-06
-5.39337e-08
-9.52713e-07
-5.40156e-08
-8.9888e-07
-5.4062e-08
-8.4502e-07
-5.40817e-08
-7.91155e-07
-5.40788e-08
-7.37296e-07
-5.40602e-08
-6.83454e-07
-5.40297e-08
-6.29637e-07
-5.39878e-08
-5.75854e-07
-5.3937e-08
-5.22114e-07
-5.38717e-08
-4.68428e-07
-5.38002e-08
-4.14801e-07
-5.37148e-08
-3.61249e-07
-5.36255e-08
-3.07774e-07
-5.35179e-08
-2.54417e-07
-5.33924e-08
-2.01204e-07
-5.32104e-08
-1.4825e-07
-5.29474e-08
-9.57076e-08
-5.24917e-08
-4.40172e-08
-5.16405e-08
6.15868e-09
-5.00777e-08
5.31515e-08
-4.69109e-08
9.67436e-08
-4.34795e-08
-1.97645e-08
1.16532e-07
-3.58268e-09
1.13602e-08
-9.89218e-09
1.98026e-08
-1.33747e-08
1.82945e-08
-7.56286e-09
7.11599e-09
1.28465e-08
-1.40621e-08
4.77299e-08
-4.09256e-08
9.32051e-08
-6.64164e-08
1.44047e-07
-8.47791e-08
1.95161e-07
-9.42484e-08
2.42968e-07
-9.57272e-08
2.85938e-07
-9.11445e-08
3.23196e-07
-8.26057e-08
3.54604e-07
-7.1791e-08
3.8025e-07
-5.98354e-08
4.00474e-07
-4.74431e-08
4.15605e-07
-3.50113e-08
4.2606e-07
-2.27311e-08
4.32331e-07
-1.06965e-08
4.34859e-07
1.09849e-09
4.33813e-07
1.27504e-08
4.28802e-07
2.42844e-08
4.19427e-07
3.55544e-08
4.05029e-07
4.62319e-08
3.85319e-07
5.58106e-08
3.60004e-07
6.36088e-08
3.2954e-07
6.88585e-08
2.94725e-07
7.08148e-08
2.57308e-07
6.89904e-08
2.19395e-07
6.33227e-08
1.83935e-07
5.42401e-08
1.53695e-07
4.24797e-08
1.31684e-07
2.87741e-08
1.19205e-07
1.35251e-08
1.17423e-07
-2.77303e-09
1.25458e-07
-1.96835e-08
1.42217e-07
-3.56718e-08
1.62623e-07
-4.65214e-08
1.80804e-07
-4.7801e-08
1.91979e-07
-3.95407e-08
1.94395e-07
-2.47956e-08
1.87775e-07
-7.06345e-09
1.73678e-07
8.51565e-09
1.53066e-07
2.00799e-08
1.19137e-07
3.52979e-08
6.14094e-08
5.82063e-08
-2.89158e-08
8.97041e-08
-1.51606e-07
1.28307e-07
-2.96924e-07
1.66389e-07
-4.5326e-07
2.0103e-07
-6.13971e-07
2.31905e-07
-7.76108e-07
2.56436e-07
-9.36461e-07
2.73659e-07
-1.09082e-06
2.83665e-07
-1.23553e-06
2.86117e-07
-1.3695e-06
2.80663e-07
-1.49175e-06
2.69157e-07
-1.60009e-06
2.54636e-07
-1.69573e-06
2.37641e-07
-1.78018e-06
2.1904e-07
-1.85496e-06
2.00347e-07
-1.92095e-06
1.82692e-07
-1.97998e-06
1.66444e-07
-2.03347e-06
1.51568e-07
-2.08231e-06
1.38518e-07
-2.12699e-06
1.27154e-07
-2.16849e-06
1.17142e-07
-2.20718e-06
1.0836e-07
-2.24356e-06
1.00628e-07
-2.27778e-06
9.38166e-08
-2.31016e-06
8.77479e-08
-2.34075e-06
8.23055e-08
-2.36975e-06
7.73645e-08
-2.39719e-06
7.28491e-08
-2.42319e-06
6.86655e-08
-2.44778e-06
6.47702e-08
-2.47102e-06
6.11033e-08
-2.49294e-06
5.76308e-08
-2.51359e-06
5.43194e-08
-2.53299e-06
5.11487e-08
-2.55116e-06
4.80994e-08
-2.56814e-06
4.51528e-08
-2.58395e-06
4.23022e-08
-2.59862e-06
3.95321e-08
-2.61213e-06
3.68445e-08
-2.62456e-06
3.42184e-08
-2.63587e-06
3.16591e-08
-2.64614e-06
2.9145e-08
-2.65539e-06
2.6687e-08
-2.6637e-06
2.42631e-08
-2.67104e-06
2.18901e-08
-2.67733e-06
1.95589e-08
-2.68256e-06
1.72717e-08
-2.68676e-06
1.50233e-08
-2.68998e-06
1.27943e-08
-2.69222e-06
1.05823e-08
-2.69353e-06
8.37562e-09
-2.69392e-06
6.17642e-09
-2.69345e-06
3.98128e-09
-2.69217e-06
1.79788e-09
-2.69017e-06
-3.6167e-10
-2.68751e-06
-2.46977e-09
-2.68412e-06
-4.52716e-09
-2.67982e-06
-6.5771e-09
-2.67452e-06
-8.64248e-09
-2.66822e-06
-1.07303e-08
-2.66089e-06
-1.28399e-08
-2.65253e-06
-1.49799e-08
-2.64313e-06
-1.7144e-08
-2.63266e-06
-1.93362e-08
-2.6211e-06
-2.15507e-08
-2.60845e-06
-2.37908e-08
-2.59469e-06
-2.60522e-08
-2.5798e-06
-2.83375e-08
-2.56376e-06
-3.06433e-08
-2.54658e-06
-3.29705e-08
-2.52824e-06
-3.53159e-08
-2.50872e-06
-3.76774e-08
-2.48801e-06
-4.00463e-08
-2.4661e-06
-4.24247e-08
-2.443e-06
-4.48159e-08
-2.41873e-06
-4.72254e-08
-2.39328e-06
-4.96548e-08
-2.36665e-06
-5.20931e-08
-2.33881e-06
-5.45354e-08
-2.30976e-06
-5.69647e-08
-2.27949e-06
-5.93875e-08
-2.24801e-06
-6.17896e-08
-2.21534e-06
-6.41824e-08
-2.18148e-06
-6.65484e-08
-2.14645e-06
-6.89002e-08
-2.11026e-06
-7.12135e-08
-2.07293e-06
-7.35013e-08
-2.03448e-06
-7.57411e-08
-1.99493e-06
-7.79437e-08
-1.95429e-06
-8.00769e-08
-1.91259e-06
-8.2154e-08
-1.86982e-06
-8.41579e-08
-1.82597e-06
-8.61053e-08
-1.78111e-06
-8.80232e-08
-1.73535e-06
-8.99271e-08
-1.68874e-06
-9.1746e-08
-1.64131e-06
-9.34758e-08
-1.5931e-06
-9.51158e-08
-1.54415e-06
-9.66784e-08
-1.4945e-06
-9.81475e-08
-1.4442e-06
-9.95349e-08
-1.39329e-06
-1.00822e-07
-1.34181e-06
-1.02024e-07
-1.28981e-06
-1.03123e-07
-1.23733e-06
-1.04138e-07
-1.18442e-06
-1.0505e-07
-1.13113e-06
-1.05877e-07
-1.07749e-06
-1.06598e-07
-1.02356e-06
-1.07229e-07
-9.69383e-07
-1.07747e-07
-9.15014e-07
-1.08169e-07
-8.60495e-07
-1.08484e-07
-8.05871e-07
-1.08716e-07
-7.51177e-07
-1.08861e-07
-6.96449e-07
-1.08944e-07
-6.41709e-07
-1.08967e-07
-5.86978e-07
-1.08951e-07
-5.32269e-07
-1.089e-07
-4.77592e-07
-1.08829e-07
-4.22953e-07
-1.08737e-07
-3.68357e-07
-1.08628e-07
-3.13814e-07
-1.08499e-07
-2.59327e-07
-1.08353e-07
-2.04903e-07
-1.08194e-07
-1.50545e-07
-1.0802e-07
-9.62598e-08
-1.07829e-07
-4.20654e-08
-1.07594e-07
1.1992e-08
-1.07265e-07
6.58228e-08
-1.06758e-07
1.1929e-07
-1.05927e-07
1.72147e-07
-1.04449e-07
2.23956e-07
-1.01826e-07
2.74228e-07
-9.711e-08
3.19717e-07
-8.88919e-08
-6.33643e-08
3.63356e-07
3.19975e-10
1.09671e-08
3.54333e-09
1.64221e-08
1.65173e-08
5.19759e-09
4.70335e-08
-2.34832e-08
9.47905e-08
-6.1867e-08
1.51413e-07
-9.75889e-08
2.07252e-07
-1.2228e-07
2.56378e-07
-1.33943e-07
2.96732e-07
-1.34621e-07
3.2862e-07
-1.27651e-07
3.53492e-07
-1.16031e-07
3.72784e-07
-1.01929e-07
3.87712e-07
-8.67293e-08
3.99075e-07
-7.12242e-08
4.07464e-07
-5.58421e-08
4.13231e-07
-4.07984e-08
4.16674e-07
-2.61902e-08
4.18029e-07
-1.20623e-08
4.17549e-07
1.56172e-09
4.15591e-07
1.47091e-08
4.12425e-07
2.74352e-08
4.0824e-07
3.97588e-08
4.02852e-07
5.16104e-08
3.95923e-07
6.27781e-08
3.86694e-07
7.28426e-08
3.74444e-07
8.11638e-08
3.58397e-07
8.68846e-08
3.3844e-07
8.90334e-08
3.15063e-07
8.67613e-08
2.89895e-07
7.95426e-08
2.65129e-07
6.73576e-08
2.43441e-07
5.06815e-08
2.26707e-07
3.04413e-08
2.16382e-07
7.86156e-09
2.11691e-07
-1.48216e-08
2.08341e-07
-3.20866e-08
1.99428e-07
-3.74955e-08
1.81367e-07
-2.96292e-08
1.53979e-07
-1.20998e-08
1.17639e-07
1.16037e-08
6.95273e-08
4.10713e-08
3.05147e-09
7.50106e-08
-8.92287e-08
1.12383e-07
-2.08666e-07
1.54738e-07
-3.50608e-07
2.0016e-07
-5.0655e-07
2.45655e-07
-6.65915e-07
2.87674e-07
-8.22765e-07
3.23248e-07
-9.72324e-07
3.50597e-07
-1.11005e-06
3.69634e-07
-1.23371e-06
3.8009e-07
-1.34237e-06
3.82288e-07
-1.43569e-06
3.76978e-07
-1.51473e-06
3.6512e-07
-1.5821e-06
3.48023e-07
-1.64059e-06
3.27592e-07
-1.69165e-06
3.05681e-07
-1.73732e-06
2.83257e-07
-1.77944e-06
2.61138e-07
-1.81927e-06
2.40125e-07
-1.85731e-06
2.2071e-07
-1.89404e-06
2.03133e-07
-1.92979e-06
1.87309e-07
-1.96456e-06
1.73261e-07
-1.99825e-06
1.60845e-07
-2.03094e-06
1.49824e-07
-2.06259e-06
1.40013e-07
-2.0932e-06
1.31232e-07
-2.12271e-06
1.23331e-07
-2.15113e-06
1.16158e-07
-2.1784e-06
1.09592e-07
-2.20456e-06
1.0352e-07
-2.22957e-06
9.78607e-08
-2.25344e-06
9.25423e-08
-2.27617e-06
8.75066e-08
-2.29778e-06
8.27043e-08
-2.31825e-06
7.81039e-08
-2.33761e-06
7.36737e-08
-2.35585e-06
6.9393e-08
-2.37299e-06
6.52444e-08
-2.38905e-06
6.12124e-08
-2.40403e-06
5.72873e-08
-2.41795e-06
5.34591e-08
-2.4308e-06
4.97227e-08
-2.44262e-06
4.60662e-08
-2.45341e-06
4.24867e-08
-2.46321e-06
3.89731e-08
-2.47204e-06
3.55218e-08
-2.47996e-06
3.21307e-08
-2.48696e-06
2.87871e-08
-2.49297e-06
2.55074e-08
-2.49798e-06
2.2282e-08
-2.50203e-06
1.91029e-08
-2.50516e-06
1.59614e-08
-2.50737e-06
1.28476e-08
-2.5087e-06
9.75659e-09
-2.50914e-06
6.68604e-09
-2.50872e-06
3.63489e-09
-2.50746e-06
6.05864e-10
-2.50534e-06
-2.40105e-09
-2.50234e-06
-5.38472e-09
-2.49841e-06
-8.36936e-09
-2.49352e-06
-1.1378e-08
-2.48766e-06
-1.44258e-08
-2.48081e-06
-1.75077e-08
-2.47298e-06
-2.06323e-08
-2.46414e-06
-2.37962e-08
-2.45428e-06
-2.70014e-08
-2.44338e-06
-3.02441e-08
-2.43143e-06
-3.35242e-08
-2.41841e-06
-3.68403e-08
-2.40431e-06
-4.0191e-08
-2.38912e-06
-4.35762e-08
-2.37281e-06
-4.69933e-08
-2.35539e-06
-5.04428e-08
-2.33683e-06
-5.39198e-08
-2.31713e-06
-5.74206e-08
-2.29627e-06
-6.09372e-08
-2.27425e-06
-6.44711e-08
-2.25107e-06
-6.80258e-08
-2.22674e-06
-7.16067e-08
-2.20126e-06
-7.52099e-08
-2.17461e-06
-7.88288e-08
-2.14678e-06
-8.24448e-08
-2.11778e-06
-8.60535e-08
-2.08758e-06
-8.96441e-08
-2.05621e-06
-9.32171e-08
-2.02367e-06
-9.67638e-08
-1.98998e-06
-1.00283e-07
-1.95513e-06
-1.03767e-07
-1.91916e-06
-1.07211e-07
-1.88206e-06
-1.10603e-07
-1.84387e-06
-1.13938e-07
-1.80459e-06
-1.17207e-07
-1.76425e-06
-1.20397e-07
-1.72287e-06
-1.23502e-07
-1.68046e-06
-1.26521e-07
-1.63704e-06
-1.29455e-07
-1.59268e-06
-1.32314e-07
-1.54744e-06
-1.35092e-07
-1.50136e-06
-1.3776e-07
-1.45449e-06
-1.40307e-07
-1.40685e-06
-1.4273e-07
-1.35849e-06
-1.45028e-07
-1.30946e-06
-1.47192e-07
-1.25978e-06
-1.49223e-07
-1.20951e-06
-1.51112e-07
-1.1587e-06
-1.52863e-07
-1.10739e-06
-1.54471e-07
-1.05562e-06
-1.55939e-07
-1.00344e-06
-1.57267e-07
-9.50903e-07
-1.58457e-07
-8.98043e-07
-1.59504e-07
-8.44907e-07
-1.60404e-07
-7.91546e-07
-1.61153e-07
-7.38002e-07
-1.61751e-07
-6.84324e-07
-1.62205e-07
-6.30548e-07
-1.62527e-07
-5.76714e-07
-1.62733e-07
-5.22849e-07
-1.62839e-07
-4.68982e-07
-1.62865e-07
-4.15126e-07
-1.62829e-07
-3.613e-07
-1.62749e-07
-3.07506e-07
-1.62637e-07
-2.53753e-07
-1.62504e-07
-2.00043e-07
-1.62346e-07
-1.4638e-07
-1.62168e-07
-9.27655e-08
-1.61969e-07
-3.91998e-08
-1.6176e-07
1.43173e-08
-1.61535e-07
6.7782e-08
-1.6129e-07
1.21184e-07
-1.60995e-07
1.74512e-07
-1.60589e-07
2.2771e-07
-1.59956e-07
2.80681e-07
-1.58895e-07
3.33262e-07
-1.57031e-07
3.85195e-07
-1.53755e-07
4.36127e-07
-1.4804e-07
4.85163e-07
-1.37925e-07
-1.13788e-07
5.35568e-07
-1.01206e-10
1.09975e-08
1.15219e-08
4.66525e-09
4.77698e-08
-3.1126e-08
1.06386e-07
-8.21508e-08
1.71829e-07
-1.27338e-07
2.29821e-07
-1.55614e-07
2.73954e-07
-1.66434e-07
3.04338e-07
-1.64359e-07
3.2417e-07
-1.5447e-07
3.3696e-07
-1.40473e-07
3.45465e-07
-1.24549e-07
3.5135e-07
-1.07844e-07
3.55554e-07
-9.0943e-08
3.58454e-07
-7.41492e-08
3.60235e-07
-5.76319e-08
3.60913e-07
-4.14961e-08
3.60529e-07
-2.58146e-08
3.59096e-07
-1.06437e-08
3.56682e-07
3.96529e-09
3.53399e-07
1.79905e-08
3.49413e-07
3.14118e-08
3.44974e-07
4.42077e-08
3.40243e-07
5.63377e-08
3.35347e-07
6.76978e-08
3.3012e-07
7.80689e-08
3.24276e-07
8.70517e-08
3.17155e-07
9.40224e-08
3.08158e-07
9.81133e-08
2.96666e-07
9.83059e-08
2.82721e-07
9.36373e-08
2.66704e-07
8.34813e-08
2.49905e-07
6.77423e-08
2.33345e-07
4.71699e-08
2.17244e-07
2.42678e-08
1.96845e-07
5.75135e-09
1.65881e-07
-9.14336e-10
1.21868e-07
6.59057e-09
6.47455e-08
2.76031e-08
-7.51379e-09
6.02026e-08
-9.78112e-08
1.01928e-07
-2.06969e-07
1.50244e-07
-3.33479e-07
2.01524e-07
-4.73968e-07
2.52873e-07
-6.21371e-07
3.02143e-07
-7.68401e-07
3.47189e-07
-9.08465e-07
3.85724e-07
-1.03617e-06
4.15381e-07
-1.14859e-06
4.35673e-07
-1.245e-06
4.47012e-07
-1.32534e-06
4.49974e-07
-1.39088e-06
4.45636e-07
-1.44373e-06
4.35132e-07
-1.48644e-06
4.19698e-07
-1.52191e-06
4.00578e-07
-1.5529e-06
3.79021e-07
-1.58159e-06
3.56268e-07
-1.60924e-06
3.33327e-07
-1.63685e-06
3.10841e-07
-1.66501e-06
2.89286e-07
-1.69395e-06
2.69032e-07
-1.72356e-06
2.503e-07
-1.75363e-06
2.33177e-07
-1.78396e-06
2.17613e-07
-1.81428e-06
2.03552e-07
-1.84432e-06
1.90873e-07
-1.87393e-06
1.79413e-07
-1.90294e-06
1.69016e-07
-1.93125e-06
1.59529e-07
-1.95874e-06
1.50822e-07
-1.98535e-06
1.42769e-07
-2.01102e-06
1.35263e-07
-2.03571e-06
1.28214e-07
-2.05938e-06
1.21546e-07
-2.08203e-06
1.15193e-07
-2.10363e-06
1.09108e-07
-2.12417e-06
1.03251e-07
-2.14366e-06
9.75884e-08
-2.16209e-06
9.20974e-08
-2.17945e-06
8.67593e-08
-2.19577e-06
8.15592e-08
-2.21104e-06
7.64849e-08
-2.22528e-06
7.15274e-08
-2.23849e-06
6.66786e-08
-2.25069e-06
6.19324e-08
-2.26188e-06
5.72809e-08
-2.27209e-06
5.27184e-08
-2.28133e-06
4.82377e-08
-2.28963e-06
4.38345e-08
-2.29705e-06
3.94966e-08
-2.30355e-06
3.52351e-08
-2.30911e-06
3.10328e-08
-2.31371e-06
2.68975e-08
-2.31738e-06
2.28203e-08
-2.32016e-06
1.87885e-08
-2.32205e-06
1.47952e-08
-2.32306e-06
1.08296e-08
-2.32319e-06
6.89057e-09
-2.32246e-06
2.96908e-09
-2.32084e-06
-9.34022e-10
-2.31834e-06
-4.83046e-09
-2.31492e-06
-8.72353e-09
-2.31057e-06
-1.26384e-08
-2.30528e-06
-1.65874e-08
-2.29906e-06
-2.05878e-08
-2.29188e-06
-2.46355e-08
-2.28374e-06
-2.87395e-08
-2.27462e-06
-3.28941e-08
-2.26452e-06
-3.71034e-08
-2.25341e-06
-4.13616e-08
-2.24129e-06
-4.56705e-08
-2.22813e-06
-5.00265e-08
-2.21392e-06
-5.443e-08
-2.19865e-06
-5.8879e-08
-2.18231e-06
-6.33716e-08
-2.16488e-06
-6.7907e-08
-2.14636e-06
-7.24799e-08
-2.12672e-06
-7.7084e-08