/*--------------------------------*- C++ -*----------------------------------*\
  =========                 |
  \\      /  F ield         | OpenFOAM: The Open Source CFD Toolbox
   \\    /   O peration     | Website:  https://openfoam.org
    \\  /    A nd           | Version:  13
     \\/     M anipulation  |
\*---------------------------------------------------------------------------*/
FoamFile
{
    format      ascii;
    class       volVectorField;
    location    "700";
    object      U;
}
// * * * * * * * * * * * * * * * * * * * * * * * * * * * * * * * * * * * * * //

dimensions      [0 1 -1 0 0 0 0];

internalField   nonuniform List<vector> 
12225
(
(9.79642 0.05534 0)
(9.34281 0.110027 0)
(8.88936 0.127524 0)
(8.45883 0.124511 0)
(8.08935 0.0973205 0)
(7.77327 0.0695086 0)
(7.50738 0.0543776 0)
(7.27668 0.0451552 0)
(7.0726 0.0379335 0)
(6.90095 0.0315005 0)
(6.76196 0.024199 0)
(6.65995 0.00930579 0)
(6.57562 -0.00326675 0)
(6.50787 -0.00547 0)
(6.45436 -0.00825099 0)
(6.4152 -0.00292993 0)
(6.39874 0.00590565 0)
(6.40218 0.00691614 0)
(10.0634 0.0528066 0)
(10.2368 0.0815117 0)
(10.3416 0.0853939 0)
(10.356 0.0843064 0)
(10.3221 0.0841214 0)
(10.2836 0.0849775 0)
(10.2236 0.0811833 0)
(10.1542 0.075063 0)
(10.0787 0.0680822 0)
(9.99744 0.0600643 0)
(9.91193 0.0526056 0)
(9.82092 0.0491551 0)
(9.73757 0.0465447 0)
(9.65765 0.0414042 0)
(9.57993 0.03632 0)
(9.50646 0.0287564 0)
(9.42809 0.0199374 0)
(9.34937 0.0140763 0)
(10.0174 0.044045 0)
(10.0723 0.0700627 0)
(10.1236 0.0783212 0)
(10.1733 0.0808807 0)
(10.2164 0.0811282 0)
(10.2547 0.0813369 0)
(10.2867 0.081886 0)
(10.3125 0.0824369 0)
(10.3319 0.0808099 0)
(10.3444 0.0772985 0)
(10.3506 0.0725864 0)
(10.3495 0.0666971 0)
(10.343 0.061599 0)
(10.3334 0.0583694 0)
(10.3215 0.0545917 0)
(10.3071 0.0503112 0)
(10.2909 0.0456576 0)
(10.2715 0.039278 0)
(10.0057 0.0323093 0)
(10.0356 0.0566505 0)
(10.0635 0.065718 0)
(10.0878 0.0723011 0)
(10.1079 0.0738582 0)
(10.1248 0.0720248 0)
(10.1407 0.0698428 0)
(10.1564 0.0679245 0)
(10.1717 0.0657783 0)
(10.1864 0.0631257 0)
(10.2 0.060012 0)
(10.212 0.0564707 0)
(10.2222 0.0531563 0)
(10.2312 0.0505548 0)
(10.2395 0.0477556 0)
(10.2471 0.0448384 0)
(10.2541 0.0417302 0)
(10.2607 0.0377063 0)
(10.0032 0.0246448 0)
(10.0291 0.0510203 0)
(10.0517 0.0627428 0)
(10.0703 0.0698127 0)
(10.0861 0.0712916 0)
(10.0985 0.0699198 0)
(10.1094 0.0680372 0)
(10.1193 0.0661653 0)
(10.1286 0.0642103 0)
(10.1374 0.0617009 0)
(10.1455 0.058746 0)
(10.153 0.0554221 0)
(10.1598 0.0521456 0)
(10.1661 0.0492689 0)
(10.1724 0.0463301 0)
(10.1783 0.0432988 0)
(10.1838 0.0399715 0)
(10.1889 0.0361055 0)
(10.0032 0.0205978 0)
(10.0235 0.0467955 0)
(10.0432 0.0582376 0)
(10.0601 0.0634909 0)
(10.0745 0.0648709 0)
(10.0865 0.0645455 0)
(10.0971 0.0635106 0)
(10.1067 0.0620902 0)
(10.1153 0.060138 0)
(10.1231 0.0575625 0)
(10.1301 0.0545798 0)
(10.1364 0.0513621 0)
(10.1419 0.0482459 0)
(10.1471 0.0454323 0)
(10.1521 0.0426064 0)
(10.1569 0.0396814 0)
(10.1614 0.0364868 0)
(10.1652 0.0329898 0)
(10.0034 0.0166545 0)
(10.0173 0.0408516 0)
(10.0355 0.0522775 0)
(10.0517 0.0574402 0)
(10.0649 0.0597921 0)
(10.0763 0.0605063 0)
(10.0867 0.0601135 0)
(10.096 0.0589467 0)
(10.1045 0.0571434 0)
(10.1121 0.0548142 0)
(10.119 0.0520839 0)
(10.1252 0.049131 0)
(10.1307 0.0462203 0)
(10.1358 0.043482 0)
(10.1407 0.0407286 0)
(10.1452 0.0378623 0)
(10.1494 0.0348047 0)
(10.1529 0.0315619 0)
(10.0023 0.0140965 0)
(10.0127 0.0356503 0)
(10.0289 0.0468918 0)
(10.0442 0.0525338 0)
(10.0567 0.0553762 0)
(10.0677 0.0564729 0)
(10.0778 0.0563509 0)
(10.087 0.0552998 0)
(10.0953 0.0536043 0)
(10.1029 0.0514152 0)
(10.1098 0.0488781 0)
(10.116 0.0461398 0)
(10.1215 0.0433761 0)
(10.1266 0.0406861 0)
(10.1314 0.0379703 0)
(10.1359 0.0351583 0)
(10.14 0.0322279 0)
(10.1434 0.0292047 0)
(10.0012 0.0119004 0)
(10.0103 0.0311626 0)
(10.024 0.0419974 0)
(10.0379 0.0477722 0)
(10.0498 0.0508532 0)
(10.0605 0.0522401 0)
(10.0704 0.0523648 0)
(10.0795 0.0515161 0)
(10.0877 0.0499772 0)
(10.0951 0.0479435 0)
(10.1019 0.0455881 0)
(10.1081 0.0430357 0)
(10.1136 0.0404147 0)
(10.1187 0.0378081 0)
(10.1234 0.0351934 0)
(10.1278 0.0325202 0)
(10.1318 0.0297761 0)
(10.1353 0.0270011 0)
(10.0011 0.00987029 0)
(10.0084 0.0269286 0)
(10.0201 0.037234 0)
(10.0326 0.0429857 0)
(10.0438 0.0461761 0)
(10.0541 0.047749 0)
(10.0638 0.0480779 0)
(10.0727 0.0474631 0)
(10.0808 0.0461531 0)
(10.0882 0.0443213 0)
(10.0949 0.042147 0)
(10.101 0.0397786 0)
(10.1065 0.0373214 0)
(10.1115 0.0348503 0)
(10.1161 0.0323596 0)
(10.1204 0.0298173 0)
(10.1243 0.0272358 0)
(10.1278 0.0246434 0)
(10.0008 0.00829683 0)
(10.0068 0.0231275 0)
(10.0168 0.03251 0)
(10.028 0.0381432 0)
(10.0384 0.0413736 0)
(10.0482 0.0430495 0)
(10.0575 0.0435418 0)
(10.0662 0.0431157 0)
(10.0742 0.0420083 0)
(10.0814 0.0403962 0)
(10.0881 0.0384421 0)
(10.0941 0.0362786 0)
(10.0995 0.0340078 0)
(10.1045 0.0316921 0)
(10.1091 0.0293392 0)
(10.1133 0.0269486 0)
(10.1171 0.0245326 0)
(10.1205 0.0221139 0)
(10.0006 0.00702749 0)
(10.0056 0.0199159 0)
(10.0142 0.0283666 0)
(10.0242 0.0337406 0)
(10.0339 0.0369303 0)
(10.0431 0.0386497 0)
(10.052 0.0392553 0)
(10.0604 0.038973 0)
(10.0682 0.0380289 0)
(10.0753 0.0366064 0)
(10.0818 0.0348524 0)
(10.0878 0.0328751 0)
(10.0932 0.0307755 0)
(10.0981 0.0286077 0)
(10.1026 0.0263977 0)
(10.1068 0.0241535 0)
(10.1105 0.0218901 0)
(10.114 0.019632 0)
(10.0005 0.00594013 0)
(10.0047 0.0171182 0)
(10.0122 0.0246023 0)
(10.021 0.0295683 0)
(10.03 0.0325919 0)
(10.0386 0.0342562 0)
(10.047 0.0348909 0)
(10.055 0.0347041 0)
(10.0625 0.0339027 0)
(10.0694 0.0326531 0)
(10.0758 0.03108 0)
(10.0816 0.0292876 0)
(10.0869 0.0273645 0)
(10.0918 0.0253611 0)
(10.0963 0.0233096 0)
(10.1004 0.0212256 0)
(10.1041 0.0191288 0)
(10.1075 0.0170458 0)
(10.0004 0.00486897 0)
(10.004 0.014207 0)
(10.0102 0.0205837 0)
(10.018 0.024992 0)
(10.0261 0.0277389 0)
(10.0341 0.0292831 0)
(10.0419 0.0299037 0)
(10.0494 0.0297906 0)
(10.0565 0.0291141 0)
(10.0632 0.028025 0)
(10.0693 0.0266287 0)
(10.075 0.0250287 0)
(10.0802 0.0232884 0)
(10.085 0.0214694 0)
(10.0894 0.0195954 0)
(10.0934 0.0176948 0)
(10.0971 0.0157881 0)
(10.1004 0.013895 0)
(10.0004 0.00380521 0)
(10.0033 0.0112175 0)
(10.0085 0.0163642 0)
(10.0152 0.0200475 0)
(10.0225 0.0223954 0)
(10.0298 0.0237211 0)
(10.037 0.0242641 0)
(10.044 0.024172 0)
(10.0506 0.0235899 0)
(10.0569 0.0226357 0)
(10.0628 0.0214153 0)
(10.0682 0.0199997 0)
(10.0733 0.0184612 0)
(10.0779 0.0168391 0)
(10.0822 0.0151687 0)
(10.0861 0.0134734 0)
(10.0897 0.0117771 0)
(10.0931 0.010097 0)
(10.0003 0.00274404 0)
(10.0027 0.00818733 0)
(10.0071 0.0119814 0)
(10.0128 0.0147625 0)
(10.0192 0.0165606 0)
(10.0258 0.0175522 0)
(10.0324 0.0179279 0)
(10.0389 0.0177912 0)
(10.0451 0.0172578 0)
(10.051 0.0164173 0)
(10.0566 0.0153539 0)
(10.0618 0.0141294 0)
(10.0666 0.0127971 0)
(10.0711 0.0113905 0)
(10.0753 0.0099421 0)
(10.0791 0.00847395 0)
(10.0826 0.00700799 0)
(10.0858 0.00556387 0)
(10.0002 0.00168282 0)
(10.0022 0.00511029 0)
(10.0059 0.00742773 0)
(10.0109 0.00913661 0)
(10.0166 0.0102129 0)
(10.0225 0.0107447 0)
(10.0286 0.0108429 0)
(10.0345 0.0105893 0)
(10.0403 0.0100461 0)
(10.0459 0.00928702 0)
(10.0512 0.00836093 0)
(10.0561 0.00731979 0)
(10.0608 0.00619209 0)
(10.0651 0.00501201 0)
(10.0691 0.00379784 0)
(10.0728 0.00257527 0)
(10.0762 0.00135528 0)
(10.0794 0.000163146 0)
(10.0002 0.00059174 0)
(10.0019 0.00191058 0)
(10.0052 0.00260939 0)
(10.0096 0.00306344 0)
(10.0148 0.00324796 0)
(10.0202 0.00316729 0)
(10.0258 0.00287736 0)
(10.0314 0.00240914 0)
(10.0369 0.00179485 0)
(10.0421 0.00106624 0)
(10.0472 0.000249869 0)
(10.0519 -0.000630401 0)
(10.0564 -0.00155641 0)
(10.0605 -0.00250998 0)
(10.0644 -0.00347778 0)
(10.068 -0.00444441 0)
(10.0714 -0.00539939 0)
(10.0745 -0.00632811 0)
(10.0002 -0.000607694 0)
(10.0018 -0.00161762 0)
(10.0049 -0.00275529 0)
(10.0092 -0.00373788 0)
(10.0141 -0.00461044 0)
(10.0194 -0.00543121 0)
(10.0248 -0.00621641 0)
(10.0302 -0.00697261 0)
(10.0355 -0.00771702 0)
(10.0406 -0.00845087 0)
(10.0455 -0.00918497 0)
(10.0501 -0.00991607 0)
(10.0545 -0.0106476 0)
(10.0585 -0.0113733 0)
(10.0624 -0.012093 0)
(10.0659 -0.0127984 0)
(10.0692 -0.0134862 0)
(10.0723 -0.0141468 0)
(10.0002 -0.00178115 0)
(10.002 -0.0050673 0)
(10.0055 -0.00798319 0)
(10.0101 -0.0103208 0)
(10.0153 -0.0121633 0)
(10.0208 -0.0136644 0)
(10.0264 -0.0148843 0)
(10.032 -0.0158916 0)
(10.0374 -0.0167277 0)
(10.0425 -0.0174503 0)
(10.0475 -0.0180878 0)
(10.0521 -0.0186724 0)
(10.0565 -0.0192144 0)
(10.0605 -0.0197315 0)
(10.0643 -0.020224 0)
(10.0679 -0.0207015 0)
(10.0712 -0.0211552 0)
(10.0743 -0.0215945 0)
(10.0003 -0.00287847 0)
(10.0024 -0.0082361 0)
(10.0065 -0.0126893 0)
(10.0118 -0.0160861 0)
(10.0176 -0.018649 0)
(10.0236 -0.020629 0)
(10.0295 -0.0221345 0)
(10.0354 -0.0232665 0)
(10.041 -0.0241115 0)
(10.0464 -0.0247626 0)
(10.0514 -0.0252749 0)
(10.0561 -0.0257011 0)
(10.0606 -0.0260651 0)
(10.0647 -0.0263964 0)
(10.0685 -0.0267015 0)
(10.0721 -0.0269928 0)
(10.0754 -0.0272653 0)
(10.0785 -0.027527 0)
(10.0003 -0.00408991 0)
(10.0031 -0.0116252 0)
(10.0082 -0.0175125 0)
(10.0145 -0.021766 0)
(10.0211 -0.0248841 0)
(10.0276 -0.0272091 0)
(10.0341 -0.0288879 0)
(10.0404 -0.0300433 0)
(10.0464 -0.0308267 0)
(10.052 -0.0313511 0)
(10.0572 -0.0317067 0)
(10.0621 -0.031946 0)
(10.0666 -0.0321226 0)
(10.0708 -0.0322618 0)
(10.0746 -0.0323915 0)
(10.0782 -0.0325098 0)
(10.0816 -0.0326286 0)
(10.0847 -0.0327372 0)
(10.0005 -0.00552664 0)
(10.0043 -0.0154235 0)
(10.0108 -0.0225852 0)
(10.0183 -0.0274649 0)
(10.0257 -0.030982 0)
(10.033 -0.033544 0)
(10.0401 -0.0352769 0)
(10.0469 -0.0363628 0)
(10.0533 -0.0370049 0)
(10.0592 -0.0373581 0)
(10.0646 -0.0375213 0)
(10.0697 -0.0375589 0)
(10.0743 -0.0375296 0)
(10.0786 -0.0374704 0)
(10.0825 -0.0374074 0)
(10.0861 -0.0373487 0)
(10.0895 -0.0372958 0)
(10.0926 -0.0372554 0)
(10.0007 -0.00733373 0)
(10.0061 -0.0197874 0)
(10.0144 -0.0279409 0)
(10.0234 -0.0331828 0)
(10.0318 -0.0369757 0)
(10.0398 -0.0396819 0)
(10.0477 -0.0413825 0)
(10.0551 -0.0423201 0)
(10.0619 -0.0427585 0)
(10.0682 -0.0428801 0)
(10.0739 -0.0427969 0)
(10.0792 -0.0425972 0)
(10.084 -0.0423454 0)
(10.0883 -0.0420833 0)
(10.0923 -0.0418331 0)
(10.096 -0.0416061 0)
(10.0994 -0.0414005 0)
(10.1025 -0.0412354 0)
(10.0011 -0.00967092 0)
(10.0089 -0.0248373 0)
(10.0196 -0.0336226 0)
(10.03 -0.0389711 0)
(10.0394 -0.0428907 0)
(10.0485 -0.0456108 0)
(10.0572 -0.0471907 0)
(10.0654 -0.0479459 0)
(10.0728 -0.0481788 0)
(10.0795 -0.0480584 0)
(10.0857 -0.0476981 0)
(10.0912 -0.0472062 0)
(10.0963 -0.0466811 0)
(10.1009 -0.0461672 0)
(10.105 -0.0456953 0)
(10.1088 -0.045257 0)
(10.1123 -0.0448561 0)
(10.1154 -0.0445175 0)
(10.0016 -0.0128089 0)
(10.013 -0.0305677 0)
(10.0269 -0.0395925 0)
(10.0392 -0.0449836 0)
(10.05 -0.0489222 0)
(10.0604 -0.0514276 0)
(10.0704 -0.0526991 0)
(10.0797 -0.0531685 0)
(10.0881 -0.0531589 0)
(10.0956 -0.0528352 0)
(10.1025 -0.0522757 0)
(10.1086 -0.0515799 0)
(10.1141 -0.0508439 0)
(10.1191 -0.0501429 0)
(10.1236 -0.0495111 0)
(10.1276 -0.0489653 0)
(10.1312 -0.048465 0)
(10.1345 -0.0480295 0)
(10.0031 -0.0176926 0)
(10.0198 -0.0368756 0)
(10.039 -0.0451375 0)
(10.0546 -0.0507927 0)
(10.0684 -0.0550711 0)
(10.0818 -0.0574666 0)
(10.0945 -0.0583469 0)
(10.106 -0.0583512 0)
(10.1163 -0.0578376 0)
(10.1254 -0.0569971 0)
(10.1336 -0.0559827 0)
(10.1407 -0.0548805 0)
(10.1469 -0.0537721 0)
(10.1523 -0.0527489 0)
(10.157 -0.0518323 0)
(10.1611 -0.0510581 0)
(10.1649 -0.0504096 0)
(10.1681 -0.0498676 0)
(10.009 -0.0265098 0)
(10.0397 -0.0466694 0)
(10.0715 -0.0516256 0)
(10.0976 -0.0565868 0)
(10.1211 -0.0615065 0)
(10.1429 -0.0645895 0)
(10.1622 -0.0659144 0)
(10.1782 -0.066164 0)
(10.1911 -0.0656874 0)
(10.2012 -0.0646237 0)
(10.2088 -0.0632596 0)
(10.214 -0.0617316 0)
(10.2173 -0.0601507 0)
(10.2189 -0.0586451 0)
(10.2193 -0.0573436 0)
(10.2188 -0.0563259 0)
(10.2178 -0.0555549 0)
(10.2164 -0.0551338 0)
(10.0446 -0.0358768 0)
(10.1461 -0.0640363 0)
(10.219 -0.0686519 0)
(10.2627 -0.0698623 0)
(10.287 -0.0706563 0)
(10.296 -0.0701921 0)
(10.2918 -0.0685675 0)
(10.2766 -0.0663457 0)
(10.2532 -0.063826 0)
(10.2241 -0.0611151 0)
(10.1905 -0.0583568 0)
(10.154 -0.0556485 0)
(10.1155 -0.0530718 0)
(10.0758 -0.0507569 0)
(10.0355 -0.0487165 0)
(9.99569 -0.0470362 0)
(9.95679 -0.0458265 0)
(9.9192 -0.0454572 0)
(9.87671 -0.0396838 0)
(9.62583 -0.0746447 0)
(9.35683 -0.0850088 0)
(9.08832 -0.0864823 0)
(8.8363 -0.08347 0)
(8.608 -0.0776082 0)
(8.40318 -0.0705596 0)
(8.22033 -0.0631039 0)
(8.05854 -0.0557403 0)
(7.91613 -0.0488354 0)
(7.79158 -0.0424374 0)
(7.68289 -0.0366229 0)
(7.58806 -0.0314316 0)
(7.50502 -0.026876 0)
(7.43197 -0.023111 0)
(7.3663 -0.020173 0)
(7.30632 -0.0179039 0)
(7.25193 -0.0166128 0)
(-0.0027469 0.00721544 -8.01224e-19)
(-0.0124624 0.0121296 9.11866e-19)
(-0.0259776 0.0134013 -6.3071e-19)
(-0.0400873 0.0117568 -1.92889e-19)
(-0.0507561 0.00640227 2.98421e-19)
(-0.0510289 -0.00263374 -7.43976e-20)
(-0.0367878 -0.0149485 -7.41328e-20)
(-0.0110925 -0.0281835 3.94098e-19)
(0.0231258 -0.0386176 -1.94496e-19)
(0.0629497 -0.0441279 4.51428e-20)
(0.105588 -0.0451917 1.43949e-20)
(0.147666 -0.0428969 -1.53612e-19)
(0.186424 -0.0382797 2.12817e-19)
(0.220111 -0.0321457 2.16052e-19)
(0.247817 -0.0250908 1.85156e-20)
(0.269093 -0.0174901 7.7794e-20)
(0.283635 -0.00956872 3.05721e-20)
(0.291497 -0.0013336 5.31239e-20)
(0.29218 0.00722372 7.91601e-20)
(0.285287 0.0157598 8.54458e-21)
(0.271386 0.0235919 -2.90812e-20)
(0.251051 0.0299987 2.46962e-19)
(0.225013 0.0343062 -3.29973e-20)
(0.194408 0.0360027 2.87473e-19)
(0.16078 0.0347007 -6.58799e-20)
(0.126 0.0303715 2.84979e-19)
(0.0922106 0.0234318 1.68021e-19)
(0.061523 0.0149236 1.31475e-19)
(0.0358098 0.00643719 -6.41086e-19)
(0.0162759 -0.000227043 -1.43285e-19)
(0.00306724 -0.00411862 -1.18658e-18)
(-0.00485016 -0.00596717 7.99077e-19)
(-0.00842642 -0.00743813 5.93436e-19)
(-0.00548665 -0.00940195 -7.02085e-19)
(0.00251114 -0.0124176 -9.0258e-19)
(0.0168461 -0.0162278 -4.53313e-20)
(0.0379095 -0.0203801 1.90073e-19)
(0.063727 -0.0231774 3.61798e-19)
(0.0908002 -0.0229821 2.07061e-19)
(0.114524 -0.0192112 4.20248e-19)
(0.131288 -0.0129371 1.5521e-19)
(0.140013 -0.00652953 3.98985e-20)
(0.142322 -0.00206205 -5.31615e-19)
(0.141324 -0.000566764 -1.09704e-19)
(0.140218 -0.00307168 2.27424e-19)
(0.140894 -0.0108051 1.1687e-20)
(0.139969 -0.0224798 5.39927e-19)
(0.130031 -0.0304639 1.76904e-19)
(0.103344 -0.0230655 7.7589e-20)
(0.0555357 -0.00210249 -7.69268e-19)
(-0.0241158 0.0197941 4.82127e-19)
(-0.124289 0.0437344 2.52798e-20)
(-0.235095 0.0704108 2.41721e-19)
(-0.35791 0.0934033 1.49024e-19)
(-0.490791 0.102002 4.88524e-20)
(-0.629325 0.105727 9.66734e-20)
(-0.763135 0.11464 1.13893e-19)
(-0.894838 0.116977 -1.1428e-19)
(-1.02305 0.110929 4.30254e-20)
(-1.14306 0.102176 4.654e-20)
(-1.25527 0.0942548 -1.06629e-19)
(-1.3584 0.0858775 -6.78079e-20)
(-1.45373 0.0763707 5.15156e-20)
(-1.54055 0.0693109 6.04268e-20)
(-1.62033 0.0638049 1.66818e-20)
(-1.69393 0.0582795 -6.34044e-20)
(-1.76181 0.0532454 6.91976e-21)
(-1.82454 0.0487168 3.25715e-21)
(-1.88277 0.0448213 1.61893e-20)
(-1.93705 0.0413742 7.88296e-20)
(-1.98782 0.038337 -3.9153e-21)
(-2.03545 0.035633 -5.67184e-20)
(-2.0803 0.0332188 6.09843e-20)
(-2.12259 0.0310323 2.21843e-20)
(-2.16257 0.0290498 -3.58364e-20)
(-2.2004 0.0272216 2.97395e-20)
(-2.23624 0.0255375 -4.57051e-21)
(-2.27021 0.0239647 5.71896e-20)
(-2.30242 0.0224926 2.631e-20)
(-2.33293 0.0211084 -3.88011e-20)
(-2.36184 0.019797 -1.10685e-20)
(-2.3892 0.0185559 2.18696e-21)
(-2.41509 0.0173678 4.33818e-20)
(-2.43953 0.0162437 5.37674e-20)
(-2.46257 0.0151582 4.72458e-20)
(-2.48426 0.0141259 -4.78561e-20)
(-2.50465 0.0131187 1.01588e-19)
(-2.52381 0.0121584 -4.02418e-21)
(-2.5418 0.0112248 7.24759e-20)
(-2.55866 0.0103152 -1.02401e-19)
(-2.57432 0.00944239 -5.47731e-20)
(-2.58873 0.00859468 4.59114e-20)
(-2.60191 0.00776339 6.65572e-20)
(-2.61392 0.00693965 -1.00649e-20)
(-2.62477 0.00611006 -6.21506e-20)
(-2.63445 0.00526827 -6.15138e-20)
(-2.64294 0.00440028 6.28912e-20)
(-2.65021 0.00350208 -3.37695e-20)
(-2.65621 0.00256489 -8.02867e-20)
(-2.6609 0.00160785 -3.48732e-20)
(-2.66424 0.000686866 8.58049e-20)
(-2.66615 -7.14321e-05 4.29723e-20)
(-2.66697 -0.000663074 6.40661e-20)
(-2.66679 -0.0011934 -3.90778e-20)
(-2.66562 -0.00171765 1.24192e-20)
(-2.66349 -0.00223176 4.30485e-21)
(-2.66038 -0.00275053 -7.87569e-21)
(-2.65628 -0.00326665 -1.70269e-20)
(-2.65117 -0.0037856 -2.5515e-20)
(-2.64504 -0.0043029 -4.14168e-20)
(-2.63785 -0.00482108 -5.66122e-20)
(-2.62961 -0.00533857 2.98977e-20)
(-2.62027 -0.0058553 -4.16258e-20)
(-2.60983 -0.00637265 -4.06114e-20)
(-2.59828 -0.00688793 7.1381e-20)
(-2.58559 -0.00740529 -4.20635e-21)
(-2.57176 -0.0079194 -4.55521e-20)
(-2.55676 -0.00843515 -4.7361e-20)
(-2.54056 -0.00894639 4.3606e-20)
(-2.52319 -0.00946062 3.25405e-21)
(-2.50463 -0.00997426 1.30352e-20)
(-2.48491 -0.0104947 -8.51526e-21)
(-2.46401 -0.0110115 -2.48289e-20)
(-2.44189 -0.0115347 2.09423e-20)
(-2.41855 -0.0120482 -1.84357e-20)
(-2.39396 -0.0125684 1.66124e-20)
(-2.36812 -0.0130791 2.24045e-20)
(-2.34105 -0.0135995 -7.90769e-21)
(-2.31273 -0.0141124 2.17452e-20)
(-2.28318 -0.0146371 -1.89221e-20)
(-2.25239 -0.0151402 4.49229e-20)
(-2.22039 -0.0156383 -3.81848e-21)
(-2.18718 -0.0161201 -4.49633e-20)
(-2.15278 -0.016589 1.01917e-20)
(-2.11721 -0.0169946 -2.28387e-21)
(-2.08051 -0.0173012 1.03919e-20)
(-2.04275 -0.0174211 1.03742e-20)
(-2.00398 -0.0173328 -5.16584e-21)
(-1.96421 -0.0173599 -7.27082e-23)
(-1.92333 -0.0177201 -4.78979e-22)
(-1.8814 -0.0181468 1.71538e-20)
(-1.8385 -0.0185402 2.12418e-20)
(-1.79468 -0.0189219 -1.4e-20)
(-1.75 -0.0192928 -1.73625e-20)
(-1.70447 -0.0196509 -3.44469e-20)
(-1.65814 -0.0199966 -5.43579e-20)
(-1.61104 -0.0203283 -4.37151e-20)
(-1.5632 -0.0206459 -7.46203e-20)
(-1.51467 -0.0209482 3.85785e-20)
(-1.46549 -0.021236 3.72945e-20)
(-1.4157 -0.0215075 6.65245e-20)
(-1.36532 -0.0217633 5.08855e-20)
(-1.31442 -0.0220009 1.48377e-19)
(-1.26303 -0.0222209 1.02772e-20)
(-1.2112 -0.0224218 6.7268e-21)
(-1.15897 -0.0226043 -1.19494e-19)
(-1.1064 -0.0227703 1.92459e-19)
(-1.05353 -0.0229214 -1.16214e-19)
(-1.00039 -0.023061 1.63999e-20)
(-0.947022 -0.0231921 6.01411e-20)
(-0.893447 -0.0233184 2.2223e-20)
(-0.839686 -0.0234415 5.72431e-20)
(-0.785751 -0.0235654 2.73815e-19)
(-0.731652 -0.0236912 1.36222e-19)
(-0.677394 -0.0238207 6.4857e-20)
(-0.622982 -0.023955 9.25468e-20)
(-0.568424 -0.0240944 2.63126e-19)
(-0.513726 -0.024243 -1.159e-20)
(-0.458895 -0.0244005 3.0712e-19)
(-0.403937 -0.0245717 4.45792e-19)
(-0.348858 -0.0247535 4.36219e-19)
(-0.293672 -0.0249455 -1.59727e-20)
(-0.238411 -0.0251409 4.15931e-20)
(-0.183138 -0.0253483 -9.89404e-20)
(-0.127993 -0.0255077 -1.24869e-18)
(-0.0732729 -0.0254942 6.22322e-19)
(-0.0192442 -0.0250652 4.61003e-19)
(0.0307695 -0.0234478 -8.90529e-19)
(0.0861976 -0.02057 -8.07981e-19)
(0.101556 -0.00893615 1.18271e-18)
(-0.000550864 0.0197004 2.23885e-18)
(-0.00577626 0.0348007 -1.69068e-18)
(-0.0127365 0.0361333 -7.16228e-19)
(-0.0139742 0.0273976 2.01381e-18)
(-0.00201756 0.00707942 4.47224e-19)
(0.0254825 -0.0275386 1.96674e-19)
(0.0627087 -0.0677588 -1.21834e-19)
(0.106022 -0.101876 -4.44473e-19)
(0.151542 -0.12386 -2.4912e-20)
(0.195761 -0.132806 -3.15381e-19)
(0.236327 -0.130953 1.67295e-20)
(0.27218 -0.121517 -4.34865e-21)
(0.302909 -0.107371 9.64855e-20)
(0.328488 -0.0906283 1.38046e-20)
(0.349083 -0.0727059 -2.99673e-20)
(0.364985 -0.0544484 -2.50751e-19)
(0.376557 -0.0362741 -5.4069e-20)
(0.384034 -0.0183546 2.36826e-19)
(0.388104 -0.00071415 -2.77042e-19)
(0.389098 0.0166441 7.72957e-20)
(0.38675 0.0334566 7.01443e-21)
(0.380666 0.0493248 1.53728e-19)
(0.370353 0.0636368 1.81448e-19)
(0.355331 0.075595 1.58931e-19)
(0.335302 0.0842176 2.14385e-19)
(0.310272 0.0885467 -1.28282e-19)
(0.280791 0.0877932 3.44768e-20)
(0.248006 0.0817473 4.75455e-20)
(0.213695 0.0709232 -2.04484e-19)
(0.180179 0.0566132 -1.63796e-19)
(0.150109 0.0403908 -3.10323e-19)
(0.126127 0.0234833 -1.12818e-19)
(0.110495 0.00610056 -9.74275e-19)
(0.103873 -0.0118385 4.18325e-19)
(0.107201 -0.0296647 -5.50069e-19)
(0.119403 -0.0470495 5.75938e-19)
(0.137855 -0.0614171 -4.70167e-19)
(0.156625 -0.0671553 1.13564e-19)
(0.170316 -0.0617219 2.62271e-19)
(0.176316 -0.0475712 -1.9963e-19)
(0.174206 -0.0294669 1.75616e-19)
(0.165003 -0.0146045 -7.6868e-20)
(0.149673 -0.00648635 -3.2292e-19)
(0.126515 -0.00294233 -1.03901e-18)
(0.0878667 0.0025331 -8.54892e-19)
(0.0265356 0.0199826 1.12016e-20)
(-0.0746429 0.0589332 -8.71735e-19)
(-0.203782 0.106673 -1.49952e-19)
(-0.340378 0.153906 3.72784e-19)
(-0.483669 0.196645 4.36039e-19)
(-0.632147 0.230885 8.44209e-20)
(-0.78028 0.256315 -3.11474e-20)
(-0.924805 0.272989 -2.85962e-20)
(-1.06258 0.280997 -8.43917e-20)
(-1.19192 0.280295 -6.06496e-20)
(-1.30951 0.271795 -1.49694e-19)
(-1.41502 0.258467 -1.6795e-19)
(-1.50948 0.241871 -3.67228e-20)
(-1.59256 0.223499 2.38432e-20)
(-1.66623 0.204702 -1.18536e-19)
(-1.73112 0.186581 8.91235e-20)
(-1.78946 0.169594 -3.81073e-20)
(-1.84196 0.153895 -1.50659e-19)
(-1.88995 0.139801 1.15516e-20)
(-1.93412 0.127345 1.07859e-19)
(-1.97501 0.11636 -4.14037e-20)
(-2.01323 0.106763 4.56661e-21)
(-2.0492 0.098341 -9.54107e-20)
(-2.0832 0.0909763 3.28198e-20)
(-2.11544 0.084455 -5.58845e-20)
(-2.14607 0.0786802 9.98242e-22)
(-2.17521 0.0734877 -6.90253e-20)
(-2.20295 0.0688111 2.25833e-21)
(-2.22937 0.0645317 -4.08702e-20)
(-2.25453 0.0606084 5.41147e-20)
(-2.27846 0.0569618 -9.33697e-20)
(-2.30121 0.0535635 1.21514e-20)
(-2.32281 0.0503669 -9.42224e-20)
(-2.34329 0.0473502 3.71928e-21)
(-2.36267 0.0444915 7.42751e-20)
(-2.38097 0.0417673 1.45604e-20)
(-2.39822 0.0391712 -4.35016e-20)
(-2.41444 0.0366797 -6.49854e-20)
(-2.42963 0.034302 3.72306e-20)
(-2.44382 0.0320059 1.04772e-19)
(-2.45701 0.0298046 -3.31203e-20)
(-2.46924 0.0276637 -1.07175e-21)
(-2.48055 0.025605 -2.78207e-21)
(-2.49098 0.0236029 6.6597e-20)
(-2.50056 0.0216629 2.33047e-19)
(-2.50921 0.0197915 5.06288e-20)
(-2.5169 0.0179835 9.47753e-20)
(-2.52365 0.0162307 -2.05064e-19)
(-2.52948 0.0145187 -9.84125e-20)
(-2.53441 0.012839 6.38722e-20)
(-2.53848 0.0111839 1.29641e-19)
(-2.54169 0.00954685 -7.10985e-20)
(-2.54409 0.00792316 -2.88537e-20)
(-2.54572 0.00630477 -4.96089e-20)
(-2.54663 0.00469323 7.19104e-20)
(-2.54691 0.00310999 -9.96295e-20)
(-2.54665 0.00162515 -7.47418e-20)
(-2.5456 0.000242501 -4.80797e-20)
(-2.54362 -0.00109346 1.58551e-19)
(-2.54071 -0.00241965 -1.78512e-20)
(-2.53684 -0.00373379 1.11331e-20)
(-2.53201 -0.00505038 5.78838e-20)
(-2.5262 -0.00636171 1.24442e-19)
(-2.51939 -0.00767351 -1.69561e-20)
(-2.51156 -0.00897987 -4.75536e-20)
(-2.50269 -0.010284 3.76315e-21)
(-2.49276 -0.011583 -8.7468e-20)
(-2.48175 -0.0128776 9.45692e-20)
(-2.46965 -0.014167 3.533e-20)
(-2.45645 -0.0154494 2.76939e-20)
(-2.44213 -0.0167259 6.85762e-20)
(-2.42667 -0.0179912 8.2066e-20)
(-2.41005 -0.0192447 -4.2675e-20)
(-2.39226 -0.0204832 2.75636e-20)
(-2.37329 -0.0217134 3.96594e-20)
(-2.35316 -0.0229356 4.76339e-20)
(-2.33187 -0.0241555 -5.43117e-21)
(-2.30941 -0.0253603 -2.07371e-21)
(-2.28574 -0.0265546 -3.78754e-20)
(-2.26087 -0.0277191 -3.46402e-20)
(-2.23477 -0.0288679 -3.67556e-20)
(-2.20744 -0.0299834 3.55225e-20)
(-2.17889 -0.0310833 -4.94117e-21)
(-2.14913 -0.0321474 -2.03645e-20)
(-2.11816 -0.0331941 -4.10088e-21)
(-2.08599 -0.0342011 -2.23966e-20)
(-2.05263 -0.0351881 -2.75996e-20)
(-2.01808 -0.0361338 -1.30599e-20)
(-1.98238 -0.0370556 6.30085e-21)
(-1.94553 -0.0379334 4.3849e-21)
(-1.90754 -0.0387963 4.00183e-21)
(-1.8684 -0.0396435 -3.13113e-21)
(-1.82811 -0.0404902 9.91644e-21)
(-1.7867 -0.0412983 -1.75352e-22)
(-1.74423 -0.0420446 5.52456e-21)
(-1.70081 -0.042711 -6.98672e-21)
(-1.65644 -0.04332 1.14921e-20)
(-1.61117 -0.043877 6.56763e-21)
(-1.56504 -0.0443903 -1.47822e-20)
(-1.51806 -0.0448536 -5.15419e-21)
(-1.47029 -0.0452725 -2.89145e-20)
(-1.42176 -0.0456402 -1.9209e-20)
(-1.37251 -0.0459647 4.43193e-20)
(-1.32258 -0.0462386 7.48343e-20)
(-1.272 -0.0464711 -1.07341e-19)
(-1.22084 -0.0466552 3.40447e-20)
(-1.16911 -0.0467994 6.92598e-21)
(-1.11687 -0.0468958 -2.01676e-19)
(-1.06415 -0.0469502 5.09594e-21)
(-1.01101 -0.0469561 3.29663e-21)
(-0.957479 -0.0469195 -7.08376e-20)
(-0.903617 -0.0468392 9.19619e-20)
(-0.849458 -0.0467243 1.32742e-19)
(-0.795045 -0.0465765 1.41256e-19)
(-0.740406 -0.0464055 1.28243e-19)
(-0.68557 -0.0462146 -1.94775e-19)
(-0.630556 -0.0460129 2.53658e-20)
(-0.575378 -0.0458031 -5.57473e-20)
(-0.520044 -0.0455918 1.53769e-19)
(-0.464558 -0.0453792 -4.77932e-20)
(-0.408924 -0.0451675 1.98231e-19)
(-0.353145 -0.044955 -2.02077e-19)
(-0.297227 -0.0447453 -3.21216e-19)
(-0.24117 -0.0445385 -5.02471e-19)
(-0.184977 -0.0443357 -2.43024e-19)
(-0.128648 -0.0441352 -1.12692e-19)
(-0.0721928 -0.0439291 5.55065e-20)
(-0.0156344 -0.0436924 3.46564e-20)
(0.040955 -0.0433809 -4.05625e-19)
(0.0974777 -0.042928 -3.74834e-19)
(0.1537 -0.0422076 5.14718e-19)
(0.209612 -0.0409748 6.25537e-19)
(0.263083 -0.0387458 5.83334e-19)
(0.319398 -0.0348156 2.92063e-19)
(0.354442 -0.0230547 -6.24842e-19)
(0.000166402 0.0224671 2.889e-19)
(0.000692359 0.0390874 2.68577e-18)
(0.00555734 0.0329912 2.80086e-18)
(0.0234036 0.00306671 -1.93979e-18)
(0.0599541 -0.0525631 3.44036e-19)
(0.109064 -0.116834 -1.54583e-19)
(0.160797 -0.170014 -6.20647e-20)
(0.208093 -0.202361 4.65139e-19)
(0.247867 -0.213654 3.59575e-19)
(0.279762 -0.208478 2.95633e-19)
(0.304776 -0.19239 1.32374e-19)
(0.324277 -0.170111 1.2505e-19)
(0.339466 -0.144946 -3.97862e-19)
(0.351223 -0.118917 -2.46639e-19)
(0.360121 -0.0931441 8.85595e-20)
(0.366564 -0.0681816 -1.91834e-19)
(0.370819 -0.0442515 1.87835e-19)
(0.373102 -0.0214278 2.82901e-20)
(0.373598 0.000304613 2.81038e-19)
(0.372648 0.0210644 2.44368e-19)
(0.370508 0.0410118 -2.30849e-19)
(0.367408 0.0601838 -6.20698e-19)
(0.363379 0.0783673 -1.11822e-19)
(0.358194 0.0950547 -7.2314e-19)
(0.351342 0.109397 1.62902e-19)
(0.342103 0.120257 2.57358e-19)
(0.329724 0.126327 -1.04983e-19)
(0.313688 0.126411 3.72575e-19)
(0.294108 0.11979 2.09359e-19)
(0.271931 0.106479 4.9255e-19)
(0.248987 0.08727 -2.66156e-19)
(0.227632 0.0633706 -1.85985e-19)
(0.210216 0.0360792 1.04143e-19)
(0.198003 0.00668094 -1.39701e-19)
(0.191781 -0.0241285 -1.98884e-19)
(0.190083 -0.0524229 -1.22138e-20)
(0.186074 -0.0688343 -5.84693e-19)
(0.173952 -0.0671413 1.91416e-19)
(0.152865 -0.0509111 -4.67433e-19)
(0.123674 -0.0261825 -1.62112e-19)
(0.0869065 0.00347415 1.54241e-19)
(0.0394233 0.0337474 -1.80941e-19)
(-0.0310024 0.0645052 -3.35864e-19)
(-0.130047 0.107652 6.57725e-19)
(-0.25026 0.162457 5.30422e-19)
(-0.386335 0.221941 -2.72256e-19)
(-0.531667 0.280498 9.95385e-20)
(-0.677705 0.333188 -9.68917e-20)
(-0.8181 0.375851 -1.48781e-19)
(-0.949887 0.408345 -6.45468e-20)
(-1.06961 0.429575 -6.33392e-20)
(-1.17619 0.439395 1.11618e-19)
(-1.26886 0.438473 1.8022e-20)
(-1.34796 0.42782 7.86512e-20)
(-1.41518 0.408893 8.68974e-21)
(-1.47284 0.38439 9.68979e-21)
(-1.52333 0.357243 4.10621e-20)
(-1.56829 0.328816 6.32852e-20)
(-1.6092 0.300351 -1.06282e-20)
(-1.64758 0.273149 2.03855e-19)
(-1.6842 0.24803 1.46752e-19)
(-1.71956 0.225397 3.39552e-20)
(-1.75398 0.205129 7.58709e-20)
(-1.78758 0.187364 -1.76915e-19)
(-1.82032 0.171898 2.62458e-20)
(-1.85216 0.158335 1.02732e-19)
(-1.88312 0.14643 -1.6523e-19)
(-1.91318 0.135917 -7.50453e-20)
(-1.94231 0.1266 5.04862e-20)
(-1.97048 0.118266 3.95758e-20)
(-1.99768 0.110751 -8.41338e-20)
(-2.02388 0.103905 1.45497e-19)
(-2.04909 0.0976218 1.70599e-20)
(-2.0733 0.0918007 5.26574e-20)
(-2.0965 0.0863734 -1.73097e-19)
(-2.1187 0.0812736 1.67797e-19)
(-2.1399 0.0764585 3.53118e-20)
(-2.1601 0.0718881 -7.29623e-20)
(-2.17932 0.067535 -1.3289e-19)
(-2.19755 0.063376 -6.59813e-20)
(-2.21481 0.0593894 1.06074e-20)
(-2.23111 0.0555635 2.8524e-20)
(-2.24645 0.051882 -1.35172e-20)
(-2.26084 0.0483405 -1.00809e-19)
(-2.27429 0.0449201 -2.76264e-20)
(-2.28682 0.0416193 -3.06563e-20)
(-2.29843 0.0384203 1.83799e-20)
(-2.30917 0.0353239 -6.35216e-20)
(-2.31907 0.0323181 -9.10696e-20)
(-2.32815 0.029401 -1.1209e-19)
(-2.33636 0.0265761 3.61941e-20)
(-2.34366 0.0238375 -1.32159e-19)
(-2.35007 0.0211773 1.28409e-19)
(-2.35563 0.0185824 1.10995e-20)
(-2.36035 0.016046 -3.02534e-20)
(-2.36424 0.0135611 -5.62674e-20)
(-2.36733 0.0111281 1.94175e-20)
(-2.36961 0.00874718 9.34922e-20)
(-2.37111 0.00642536 7.68964e-20)
(-2.37184 0.0041687 3.40277e-20)
(-2.37176 0.00198174 4.07842e-20)
(-2.37086 -0.000163624 2.0316e-20)
(-2.36906 -0.00230081 1.87585e-20)
(-2.36635 -0.0044363 -2.59277e-19)
(-2.36274 -0.0065652 5.08991e-20)
(-2.35819 -0.00869159 4.60012e-20)
(-2.3527 -0.0108157 -8.93137e-20)
(-2.34626 -0.0129362 7.57611e-20)
(-2.33883 -0.0150524 -2.51655e-20)
(-2.33041 -0.0171622 1.09009e-19)
(-2.32098 -0.0192658 7.91626e-20)
(-2.31052 -0.0213612 5.5626e-20)
(-2.299 -0.023449 -3.65987e-20)
(-2.28643 -0.0255268 4.40671e-20)
(-2.27277 -0.0275949 2.82662e-20)
(-2.25802 -0.0296503 -3.40673e-20)
(-2.24216 -0.0316904 -5.09389e-20)
(-2.22518 -0.0337092 1.58756e-19)
(-2.20704 -0.0357084 2.35652e-20)
(-2.18777 -0.0376906 -5.40625e-20)
(-2.16735 -0.0396605 -1.35422e-19)
(-2.14579 -0.0416165 -1.7094e-20)
(-2.12308 -0.0435528 -1.13388e-21)
(-2.09919 -0.0454601 -4.69555e-20)
(-2.07412 -0.047332 4.89964e-21)
(-2.04784 -0.0491664 3.67228e-20)
(-2.02038 -0.0509605 -9.99613e-20)
(-1.99171 -0.0527144 3.2871e-20)
(-1.96186 -0.054424 1.27869e-20)
(-1.93082 -0.0560897 4.84583e-20)
(-1.8986 -0.0577041 -1.29108e-20)
(-1.86522 -0.0592672 2.62548e-20)
(-1.83067 -0.0607715 6.16604e-20)
(-1.79498 -0.0622169 5.81958e-21)
(-1.75815 -0.0635908 -1.97826e-20)
(-1.72021 -0.0648957 4.43937e-21)
(-1.68116 -0.0661306 2.71802e-21)
(-1.64101 -0.0673061 -3.13208e-21)
(-1.59979 -0.0684304 -1.09282e-21)
(-1.55758 -0.0695001 -6.91685e-22)
(-1.51441 -0.0704901 2.72062e-21)
(-1.47032 -0.0713981 -3.03178e-20)
(-1.42535 -0.0722244 -4.54044e-21)
(-1.37952 -0.0729733 -5.15738e-21)
(-1.33288 -0.0736402 -1.07497e-20)
(-1.28545 -0.0742287 5.23733e-20)
(-1.23728 -0.074734 -1.56585e-20)