/*--------------------------------*- C++ -*----------------------------------*\
| aquaflux test fixture                                                       |
\*---------------------------------------------------------------------------*/
FoamFile
{
    version     2.0;
    format      ascii;
    class       polyBoundaryMesh;
    location    "constant/polyMesh";
    object      boundary;
}
// * * * * * * * * * * * * * * * * * * * * * * * * * * * * * * * * * * * //

6
(
    left
    {
        type            patch;
        nFaces          1;
        startFace       1;
    }
    right
    {
        type            patch;
        nFaces          1;
        startFace       2;
    }
    bottom
    {
        type            wall;
        nFaces          2;
        startFace       3;
    }
    top
    {
        type            wall;
        nFaces          2;
        startFace       5;
    }
    back
    {
        type            empty;
        nFaces          2;
        startFace       7;
    }
    front
    {
        type            empty;
        nFaces          2;
        startFace       9;
    }
)
